<?xml version="1.0"?> 
<VTKFile type="UnstructuredGrid"> 
   <UnstructuredGrid> 
      <Piece NumberOfPoints="6000"  NumberOfCells="1500">  
          <Points>  
             <DataArray type="Float64" NumberOfComponents="3" format="ascii">   
-500.0   0.0   0.0
-450.0   0.0   0.0
-500.0   30.0   0.0
-500.0   0.0   16.666666666666668
-450.0   0.0   0.0
-450.0   30.0   0.0
-500.0   30.0   0.0
-450.0   30.0   16.666666666666668
-500.0   0.0   16.666666666666668
-500.0   30.0   16.666666666666668
-450.0   30.0   16.666666666666668
-500.0   30.0   0.0
-500.0   0.0   16.666666666666668
-450.0   30.0   16.666666666666668
-450.0   0.0   16.666666666666668
-450.0   0.0   0.0
-500.0   0.0   16.666666666666668
-450.0   30.0   16.666666666666668
-450.0   0.0   0.0
-500.0   30.0   0.0
-500.0   0.0   16.666666666666668
-450.0   0.0   16.666666666666668
-500.0   30.0   16.666666666666668
-500.0   0.0   33.333333333333336
-450.0   0.0   16.666666666666668
-450.0   30.0   16.666666666666668
-500.0   30.0   16.666666666666668
-450.0   30.0   33.333333333333336
-500.0   0.0   33.333333333333336
-500.0   30.0   33.333333333333336
-450.0   30.0   33.333333333333336
-500.0   30.0   16.666666666666668
-500.0   0.0   33.333333333333336
-450.0   30.0   33.333333333333336
-450.0   0.0   33.333333333333336
-450.0   0.0   16.666666666666668
-500.0   0.0   33.333333333333336
-450.0   30.0   33.333333333333336
-450.0   0.0   16.666666666666668
-500.0   30.0   16.666666666666668
-500.0   0.0   33.333333333333336
-450.0   0.0   33.333333333333336
-500.0   30.0   33.333333333333336
-500.0   0.0   50.0
-450.0   0.0   33.333333333333336
-450.0   30.0   33.333333333333336
-500.0   30.0   33.333333333333336
-450.0   30.0   50.0
-500.0   0.0   50.0
-500.0   30.0   50.0
-450.0   30.0   50.0
-500.0   30.0   33.333333333333336
-500.0   0.0   50.0
-450.0   30.0   50.0
-450.0   0.0   50.0
-450.0   0.0   33.333333333333336
-500.0   0.0   50.0
-450.0   30.0   50.0
-450.0   0.0   33.333333333333336
-500.0   30.0   33.333333333333336
-500.0   30.0   0.0
-450.0   30.0   0.0
-500.0   60.0   0.0
-500.0   30.0   16.666666666666668
-450.0   30.0   0.0
-450.0   60.0   0.0
-500.0   60.0   0.0
-450.0   60.0   16.666666666666668
-500.0   30.0   16.666666666666668
-500.0   60.0   16.666666666666668
-450.0   60.0   16.666666666666668
-500.0   60.0   0.0
-500.0   30.0   16.666666666666668
-450.0   60.0   16.666666666666668
-450.0   30.0   16.666666666666668
-450.0   30.0   0.0
-500.0   30.0   16.666666666666668
-450.0   60.0   16.666666666666668
-450.0   30.0   0.0
-500.0   60.0   0.0
-500.0   30.0   16.666666666666668
-450.0   30.0   16.666666666666668
-500.0   60.0   16.666666666666668
-500.0   30.0   33.333333333333336
-450.0   30.0   16.666666666666668
-450.0   60.0   16.666666666666668
-500.0   60.0   16.666666666666668
-450.0   60.0   33.333333333333336
-500.0   30.0   33.333333333333336
-500.0   60.0   33.333333333333336
-450.0   60.0   33.333333333333336
-500.0   60.0   16.666666666666668
-500.0   30.0   33.333333333333336
-450.0   60.0   33.333333333333336
-450.0   30.0   33.333333333333336
-450.0   30.0   16.666666666666668
-500.0   30.0   33.333333333333336
-450.0   60.0   33.333333333333336
-450.0   30.0   16.666666666666668
-500.0   60.0   16.666666666666668
-500.0   30.0   33.333333333333336
-450.0   30.0   33.333333333333336
-500.0   60.0   33.333333333333336
-500.0   30.0   50.0
-450.0   30.0   33.333333333333336
-450.0   60.0   33.333333333333336
-500.0   60.0   33.333333333333336
-450.0   60.0   50.0
-500.0   30.0   50.0
-500.0   60.0   50.0
-450.0   60.0   50.0
-500.0   60.0   33.333333333333336
-500.0   30.0   50.0
-450.0   60.0   50.0
-450.0   30.0   50.0
-450.0   30.0   33.333333333333336
-500.0   30.0   50.0
-450.0   60.0   50.0
-450.0   30.0   33.333333333333336
-500.0   60.0   33.333333333333336
-500.0   60.0   0.0
-450.0   60.0   0.0
-500.0   90.0   0.0
-500.0   60.0   16.666666666666668
-450.0   60.0   0.0
-450.0   90.0   0.0
-500.0   90.0   0.0
-450.0   90.0   16.666666666666668
-500.0   60.0   16.666666666666668
-500.0   90.0   16.666666666666668
-450.0   90.0   16.666666666666668
-500.0   90.0   0.0
-500.0   60.0   16.666666666666668
-450.0   90.0   16.666666666666668
-450.0   60.0   16.666666666666668
-450.0   60.0   0.0
-500.0   60.0   16.666666666666668
-450.0   90.0   16.666666666666668
-450.0   60.0   0.0
-500.0   90.0   0.0
-500.0   60.0   16.666666666666668
-450.0   60.0   16.666666666666668
-500.0   90.0   16.666666666666668
-500.0   60.0   33.333333333333336
-450.0   60.0   16.666666666666668
-450.0   90.0   16.666666666666668
-500.0   90.0   16.666666666666668
-450.0   90.0   33.333333333333336
-500.0   60.0   33.333333333333336
-500.0   90.0   33.333333333333336
-450.0   90.0   33.333333333333336
-500.0   90.0   16.666666666666668
-500.0   60.0   33.333333333333336
-450.0   90.0   33.333333333333336
-450.0   60.0   33.333333333333336
-450.0   60.0   16.666666666666668
-500.0   60.0   33.333333333333336
-450.0   90.0   33.333333333333336
-450.0   60.0   16.666666666666668
-500.0   90.0   16.666666666666668
-500.0   60.0   33.333333333333336
-450.0   60.0   33.333333333333336
-500.0   90.0   33.333333333333336
-500.0   60.0   50.0
-450.0   60.0   33.333333333333336
-450.0   90.0   33.333333333333336
-500.0   90.0   33.333333333333336
-450.0   90.0   50.0
-500.0   60.0   50.0
-500.0   90.0   50.0
-450.0   90.0   50.0
-500.0   90.0   33.333333333333336
-500.0   60.0   50.0
-450.0   90.0   50.0
-450.0   60.0   50.0
-450.0   60.0   33.333333333333336
-500.0   60.0   50.0
-450.0   90.0   50.0
-450.0   60.0   33.333333333333336
-500.0   90.0   33.333333333333336
-500.0   90.0   0.0
-450.0   90.0   0.0
-500.0   120.0   0.0
-500.0   90.0   16.666666666666668
-450.0   90.0   0.0
-450.0   120.0   0.0
-500.0   120.0   0.0
-450.0   120.0   16.666666666666668
-500.0   90.0   16.666666666666668
-500.0   120.0   16.666666666666668
-450.0   120.0   16.666666666666668
-500.0   120.0   0.0
-500.0   90.0   16.666666666666668
-450.0   120.0   16.666666666666668
-450.0   90.0   16.666666666666668
-450.0   90.0   0.0
-500.0   90.0   16.666666666666668
-450.0   120.0   16.666666666666668
-450.0   90.0   0.0
-500.0   120.0   0.0
-500.0   90.0   16.666666666666668
-450.0   90.0   16.666666666666668
-500.0   120.0   16.666666666666668
-500.0   90.0   33.333333333333336
-450.0   90.0   16.666666666666668
-450.0   120.0   16.666666666666668
-500.0   120.0   16.666666666666668
-450.0   120.0   33.333333333333336
-500.0   90.0   33.333333333333336
-500.0   120.0   33.333333333333336
-450.0   120.0   33.333333333333336
-500.0   120.0   16.666666666666668
-500.0   90.0   33.333333333333336
-450.0   120.0   33.333333333333336
-450.0   90.0   33.333333333333336
-450.0   90.0   16.666666666666668
-500.0   90.0   33.333333333333336
-450.0   120.0   33.333333333333336
-450.0   90.0   16.666666666666668
-500.0   120.0   16.666666666666668
-500.0   90.0   33.333333333333336
-450.0   90.0   33.333333333333336
-500.0   120.0   33.333333333333336
-500.0   90.0   50.0
-450.0   90.0   33.333333333333336
-450.0   120.0   33.333333333333336
-500.0   120.0   33.333333333333336
-450.0   120.0   50.0
-500.0   90.0   50.0
-500.0   120.0   50.0
-450.0   120.0   50.0
-500.0   120.0   33.333333333333336
-500.0   90.0   50.0
-450.0   120.0   50.0
-450.0   90.0   50.0
-450.0   90.0   33.333333333333336
-500.0   90.0   50.0
-450.0   120.0   50.0
-450.0   90.0   33.333333333333336
-500.0   120.0   33.333333333333336
-500.0   120.0   0.0
-450.0   120.0   0.0
-500.0   150.0   0.0
-500.0   120.0   16.666666666666668
-450.0   120.0   0.0
-450.0   150.0   0.0
-500.0   150.0   0.0
-450.0   150.0   16.666666666666668
-500.0   120.0   16.666666666666668
-500.0   150.0   16.666666666666668
-450.0   150.0   16.666666666666668
-500.0   150.0   0.0
-500.0   120.0   16.666666666666668
-450.0   150.0   16.666666666666668
-450.0   120.0   16.666666666666668
-450.0   120.0   0.0
-500.0   120.0   16.666666666666668
-450.0   150.0   16.666666666666668
-450.0   120.0   0.0
-500.0   150.0   0.0
-500.0   120.0   16.666666666666668
-450.0   120.0   16.666666666666668
-500.0   150.0   16.666666666666668
-500.0   120.0   33.333333333333336
-450.0   120.0   16.666666666666668
-450.0   150.0   16.666666666666668
-500.0   150.0   16.666666666666668
-450.0   150.0   33.333333333333336
-500.0   120.0   33.333333333333336
-500.0   150.0   33.333333333333336
-450.0   150.0   33.333333333333336
-500.0   150.0   16.666666666666668
-500.0   120.0   33.333333333333336
-450.0   150.0   33.333333333333336
-450.0   120.0   33.333333333333336
-450.0   120.0   16.666666666666668
-500.0   120.0   33.333333333333336
-450.0   150.0   33.333333333333336
-450.0   120.0   16.666666666666668
-500.0   150.0   16.666666666666668
-500.0   120.0   33.333333333333336
-450.0   120.0   33.333333333333336
-500.0   150.0   33.333333333333336
-500.0   120.0   50.0
-450.0   120.0   33.333333333333336
-450.0   150.0   33.333333333333336
-500.0   150.0   33.333333333333336
-450.0   150.0   50.0
-500.0   120.0   50.0
-500.0   150.0   50.0
-450.0   150.0   50.0
-500.0   150.0   33.333333333333336
-500.0   120.0   50.0
-450.0   150.0   50.0
-450.0   120.0   50.0
-450.0   120.0   33.333333333333336
-500.0   120.0   50.0
-450.0   150.0   50.0
-450.0   120.0   33.333333333333336
-500.0   150.0   33.333333333333336
-450.0   0.0   0.0
-400.0   0.0   0.0
-450.0   30.0   0.0
-450.0   0.0   16.666666666666668
-400.0   0.0   0.0
-400.0   30.0   0.0
-450.0   30.0   0.0
-400.0   30.0   16.666666666666668
-450.0   0.0   16.666666666666668
-450.0   30.0   16.666666666666668
-400.0   30.0   16.666666666666668
-450.0   30.0   0.0
-450.0   0.0   16.666666666666668
-400.0   30.0   16.666666666666668
-400.0   0.0   16.666666666666668
-400.0   0.0   0.0
-450.0   0.0   16.666666666666668
-400.0   30.0   16.666666666666668
-400.0   0.0   0.0
-450.0   30.0   0.0
-450.0   0.0   16.666666666666668
-400.0   0.0   16.666666666666668
-450.0   30.0   16.666666666666668
[...]
          <PointData>  
             <DataArray type="Float64" NumberOfComponents="3" Name="Strains" format="ascii">   
-5.0563138292273415e-05   0.0   -3.3306510373248894e-05
-5.0563138292273415e-05   0.0   -3.3306510373248894e-05
-5.0563138292273415e-05   0.0   -3.3306510373248894e-05
-5.0563138292273415e-05   0.0   -3.3306510373248894e-05
-3.2162252911419775e-05   5.585260096377536e-06   7.127879860002986e-07
-3.2162252911419775e-05   5.585260096377536e-06   7.127879860002986e-07
-3.2162252911419775e-05   5.585260096377536e-06   7.127879860002986e-07
-3.2162252911419775e-05   5.585260096377536e-06   7.127879860002986e-07
-3.151794217797757e-05   0.0   -3.145082094114758e-05
-3.151794217797757e-05   0.0   -3.145082094114758e-05
-3.151794217797757e-05   0.0   -3.145082094114758e-05
-3.151794217797757e-05   0.0   -3.145082094114758e-05
-5.2906520832375476e-05   6.710309663165229e-06   1.7062435161662435e-07
-5.2906520832375476e-05   6.710309663165229e-06   1.7062435161662435e-07
-5.2906520832375476e-05   6.710309663165229e-06   1.7062435161662435e-07
-5.2906520832375476e-05   6.710309663165229e-06   1.7062435161662435e-07
-4.104054023512542e-05   1.5464078600844325e-06   -1.6507668895284986e-05
-4.104054023512542e-05   1.5464078600844325e-06   -1.6507668895284986e-05
-4.104054023512542e-05   1.5464078600844325e-06   -1.6507668895284986e-05
-4.104054023512542e-05   1.5464078600844325e-06   -1.6507668895284986e-05
-5.290652083237557e-05   0.0   -3.5477006739046725e-05
-5.290652083237557e-05   0.0   -3.5477006739046725e-05
-5.290652083237557e-05   0.0   -3.5477006739046725e-05
-5.290652083237557e-05   0.0   -3.5477006739046725e-05
-3.151794217797757e-05   6.7103096631652425e-06   4.196810149515763e-06
-3.151794217797757e-05   6.7103096631652425e-06   4.196810149515763e-06
-3.151794217797757e-05   6.7103096631652425e-06   4.196810149515763e-06
-3.151794217797757e-05   6.7103096631652425e-06   4.196810149515763e-06
-3.15979123117801e-05   0.0   -3.221822667533947e-05
-3.15979123117801e-05   0.0   -3.221822667533947e-05
-3.15979123117801e-05   0.0   -3.221822667533947e-05
-3.15979123117801e-05   0.0   -3.221822667533947e-05
-5.4548162252190945e-05   7.191186078055761e-06   1.717478245178618e-06
-5.4548162252190945e-05   7.191186078055761e-06   1.717478245178618e-06
-5.4548162252190945e-05   7.191186078055761e-06   1.717478245178618e-06
-5.4548162252190945e-05   7.191186078055761e-06   1.717478245178618e-06
-4.2252216572077764e-05   2.715650053089374e-06   -1.6090442940030168e-05
-4.2252216572077764e-05   2.715650053089374e-06   -1.6090442940030168e-05
-4.2252216572077764e-05   2.715650053089374e-06   -1.6090442940030168e-05
-4.2252216572077764e-05   2.715650053089374e-06   -1.6090442940030168e-05
-5.454816225219104e-05   0.0   -3.653293832217294e-05
-5.454816225219104e-05   0.0   -3.653293832217294e-05
-5.454816225219104e-05   0.0   -3.653293832217294e-05
-5.454816225219104e-05   0.0   -3.653293832217294e-05
-3.15979123117801e-05   7.191186078055775e-06   6.032189892012087e-06
-3.15979123117801e-05   7.191186078055775e-06   6.032189892012087e-06
-3.15979123117801e-05   7.191186078055775e-06   6.032189892012087e-06
-3.15979123117801e-05   7.191186078055775e-06   6.032189892012087e-06
-3.157125288341981e-05   0.0   -3.2416825308897784e-05
-3.157125288341981e-05   0.0   -3.2416825308897784e-05
-3.157125288341981e-05   0.0   -3.2416825308897784e-05
-3.157125288341981e-05   0.0   -3.2416825308897784e-05
-5.809355832668423e-05   8.19879446060746e-06   6.867740420178593e-06
-5.809355832668423e-05   8.19879446060746e-06   6.867740420178593e-06
-5.809355832668423e-05   8.19879446060746e-06   6.867740420178593e-06
-5.809355832668423e-05   8.19879446060746e-06   6.867740420178593e-06
-4.3059707567805354e-05   3.430094177729291e-06   -1.53274573415593e-05
-4.3059707567805354e-05   3.430094177729291e-06   -1.53274573415593e-05
-4.3059707567805354e-05   3.430094177729291e-06   -1.53274573415593e-05
-4.3059707567805354e-05   3.430094177729291e-06   -1.53274573415593e-05
-3.216225291141983e-05   0.0   -2.9955354315422373e-05
-3.216225291141983e-05   0.0   -2.9955354315422373e-05
-3.216225291141983e-05   0.0   -2.9955354315422373e-05
-3.216225291141983e-05   0.0   -2.9955354315422373e-05
-1.4657174646691518e-05   2.0453346625802187e-06   4.4697692333958266e-07
-1.4657174646691518e-05   2.0453346625802187e-06   4.4697692333958266e-07
-1.4657174646691518e-05   2.0453346625802187e-06   4.4697692333958266e-07
-1.4657174646691518e-05   2.0453346625802187e-06   4.4697692333958266e-07
-1.4088373301639446e-05   0.0   -2.9700471844035788e-05
-1.4088373301639446e-05   0.0   -2.9700471844035788e-05
-1.4088373301639446e-05   0.0   -2.9700471844035788e-05
-1.4088373301639446e-05   0.0   -2.9700471844035788e-05
-3.151794217797757e-05   2.9172484951863143e-06   -2.401539480584052e-06
-3.151794217797757e-05   2.9172484951863143e-06   -2.401539480584052e-06
-3.151794217797757e-05   2.9172484951863143e-06   -2.401539480584052e-06
-3.151794217797757e-05   2.9172484951863143e-06   -2.401539480584052e-06
-2.3125313106529598e-05   2.1240205948882168e-07   -1.4766346738245391e-05
-2.3125313106529598e-05   2.1240205948882168e-07   -1.4766346738245391e-05
-2.3125313106529598e-05   2.1240205948882168e-07   -1.4766346738245391e-05
-2.3125313106529598e-05   2.1240205948882168e-07   -1.4766346738245391e-05
-3.151794217797753e-05   0.0   -3.145082094114755e-05
-3.151794217797753e-05   0.0   -3.145082094114755e-05
-3.151794217797753e-05   0.0   -3.145082094114755e-05
-3.151794217797753e-05   0.0   -3.145082094114755e-05
-1.4088373301639446e-05   2.9172484951863143e-06   -6.511903834722634e-07
-1.4088373301639446e-05   2.9172484951863143e-06   -6.511903834722634e-07
-1.4088373301639446e-05   2.9172484951863143e-06   -6.511903834722634e-07
-1.4088373301639446e-05   2.9172484951863143e-06   -6.511903834722634e-07
-1.3765272299990422e-05   0.0   -3.0071449042220156e-05
-1.3765272299990422e-05   0.0   -3.0071449042220156e-05
-1.3765272299990422e-05   0.0   -3.0071449042220156e-05
-1.3765272299990422e-05   0.0   -3.0071449042220156e-05
-3.15979123117801e-05   3.577962721865528e-06   -2.497159989023345e-06
-3.15979123117801e-05   3.577962721865528e-06   -2.497159989023345e-06
-3.15979123117801e-05   3.577962721865528e-06   -2.497159989023345e-06
-3.15979123117801e-05   3.577962721865528e-06   -2.497159989023345e-06
-2.2641607238983945e-05   1.1494765824395166e-06   -1.596724342669453e-05
-2.2641607238983945e-05   1.1494765824395166e-06   -1.596724342669453e-05
-2.2641607238983945e-05   1.1494765824395166e-06   -1.596724342669453e-05
-2.2641607238983945e-05   1.1494765824395166e-06   -1.596724342669453e-05
-3.15979123117801e-05   0.0   -3.221822667533947e-05
-3.15979123117801e-05   0.0   -3.221822667533947e-05
-3.15979123117801e-05   0.0   -3.221822667533947e-05
-3.15979123117801e-05   0.0   -3.221822667533947e-05
-1.3765272299990422e-05   3.577962721865528e-06   -3.5038235590403033e-07
-1.3765272299990422e-05   3.577962721865528e-06   -3.5038235590403033e-07
-1.3765272299990422e-05   3.577962721865528e-06   -3.5038235590403033e-07
-1.3765272299990422e-05   3.577962721865528e-06   -3.5038235590403033e-07
-1.3469590650334414e-05   0.0   -2.9917530057066786e-05
-1.3469590650334414e-05   0.0   -2.9917530057066786e-05
-1.3469590650334414e-05   0.0   -2.9917530057066786e-05
-1.3469590650334414e-05   0.0   -2.9917530057066786e-05
-3.157125288341973e-05   4.165492086384944e-06   -2.247388253755447e-06
-3.157125288341973e-05   4.165492086384944e-06   -2.247388253755447e-06
-3.157125288341973e-05   4.165492086384944e-06   -2.247388253755447e-06
-3.157125288341973e-05   4.165492086384944e-06   -2.247388253755447e-06
-2.2533751481057248e-05   1.9172471818938857e-06   -1.5960943648331726e-05
-2.2533751481057248e-05   1.9172471818938857e-06   -1.5960943648331726e-05
-2.2533751481057248e-05   1.9172471818938857e-06   -1.5960943648331726e-05
-2.2533751481057248e-05   1.9172471818938857e-06   -1.5960943648331726e-05
-1.4657174646691545e-05   0.0   -2.8728153517874238e-05
-1.4657174646691545e-05   0.0   -2.8728153517874238e-05
-1.4657174646691545e-05   0.0   -2.8728153517874238e-05
-1.4657174646691545e-05   0.0   -2.8728153517874238e-05
1.874215940956129e-06   -2.643850289697018e-07   -1.3344668891765756e-06
1.874215940956129e-06   -2.643850289697018e-07   -1.3344668891765756e-06
1.874215940956129e-06   -2.643850289697018e-07   -1.3344668891765756e-06
1.874215940956129e-06   -2.643850289697018e-07   -1.3344668891765756e-06
2.2414139848592473e-06   0.0   -2.93895416285096e-05
2.2414139848592473e-06   0.0   -2.93895416285096e-05
2.2414139848592473e-06   0.0   -2.93895416285096e-05
2.2414139848592473e-06   0.0   -2.93895416285096e-05
-1.4088373301639422e-05   5.182170258768136e-07   -2.484159699871283e-06
-1.4088373301639422e-05   5.182170258768136e-07   -2.484159699871283e-06
-1.4088373301639422e-05   5.182170258768136e-07   -2.484159699871283e-06
-1.4088373301639422e-05   5.182170258768136e-07   -2.484159699871283e-06
-6.207880330916123e-06   -5.511567588628843e-07   -1.497669038023291e-05
-6.207880330916123e-06   -5.511567588628843e-07   -1.497669038023291e-05
-6.207880330916123e-06   -5.511567588628843e-07   -1.497669038023291e-05
-6.207880330916123e-06   -5.511567588628843e-07   -1.497669038023291e-05
-1.4088373301639446e-05   0.0   -2.9700471844035788e-05
-1.4088373301639446e-05   0.0   -2.9700471844035788e-05
-1.4088373301639446e-05   0.0   -2.9700471844035788e-05
-1.4088373301639446e-05   0.0   -2.9700471844035788e-05
2.2414139848592516e-06   5.182170258768136e-07   -2.173229484345197e-06
2.2414139848592516e-06   5.182170258768136e-07   -2.173229484345197e-06
2.2414139848592516e-06   5.182170258768136e-07   -2.173229484345197e-06
2.2414139848592516e-06   5.182170258768136e-07   -2.173229484345197e-06
2.5324084289553174e-06   0.0   -2.9346810764102766e-05
2.5324084289553174e-06   0.0   -2.9346810764102766e-05
2.5324084289553174e-06   0.0   -2.9346810764102766e-05
2.5324084289553174e-06   0.0   -2.9346810764102766e-05
-1.3765272299990374e-05   1.2077304635288945e-06   -2.9086478273105777e-06
-1.3765272299990374e-05   1.2077304635288945e-06   -2.9086478273105777e-06
-1.3765272299990374e-05   1.2077304635288945e-06   -2.9086478273105777e-06
-1.3765272299990374e-05   1.2077304635288945e-06   -2.9086478273105777e-06
-5.777982436342052e-06   2.947175666108068e-07   -1.5672989861906955e-05
-5.777982436342052e-06   2.947175666108068e-07   -1.5672989861906955e-05
-5.777982436342052e-06   2.947175666108068e-07   -1.5672989861906955e-05
-5.777982436342052e-06   2.947175666108068e-07   -1.5672989861906955e-05
-1.3765272299990422e-05   0.0   -3.0071449042220156e-05
-1.3765272299990422e-05   0.0   -3.0071449042220156e-05
-1.3765272299990422e-05   0.0   -3.0071449042220156e-05
-1.3765272299990422e-05   0.0   -3.0071449042220156e-05
2.5324084289553216e-06   1.2077304635288945e-06   -2.1840095491932493e-06
2.5324084289553216e-06   1.2077304635288945e-06   -2.1840095491932493e-06
2.5324084289553216e-06   1.2077304635288945e-06   -2.1840095491932493e-06
2.5324084289553216e-06   1.2077304635288945e-06   -2.1840095491932493e-06
2.920983109735937e-06   0.0   -2.8714030474044803e-05
2.920983109735937e-06   0.0   -2.8714030474044803e-05
2.920983109735937e-06   0.0   -2.8714030474044803e-05
2.920983109735937e-06   0.0   -2.8714030474044803e-05
-1.3469590650334378e-05   2.005832638369926e-06   -2.5999071236161995e-06
-1.3469590650334378e-05   2.005832638369926e-06   -2.5999071236161995e-06
-1.3469590650334378e-05   2.005832638369926e-06   -2.5999071236161995e-06
-1.3469590650334378e-05   2.005832638369926e-06   -2.5999071236161995e-06
-5.4221445951272305e-06   1.1311821401460847e-06   -1.5487526916693833e-05
-5.4221445951272305e-06   1.1311821401460847e-06   -1.5487526916693833e-05
-5.4221445951272305e-06   1.1311821401460847e-06   -1.5487526916693833e-05
-5.4221445951272305e-06   1.1311821401460847e-06   -1.5487526916693833e-05
1.8742159409561323e-06   0.0   -2.8886784535256063e-05
1.8742159409561323e-06   0.0   -2.8886784535256063e-05
1.8742159409561323e-06   0.0   -2.8886784535256063e-05
1.8742159409561323e-06   0.0   -2.8886784535256063e-05
1.98263758373279e-05   -2.325478356062066e-06   -3.6180505494033997e-07
1.98263758373279e-05   -2.325478356062066e-06   -3.6180505494033997e-07
1.98263758373279e-05   -2.325478356062066e-06   -3.6180505494033997e-07
1.98263758373279e-05   -2.325478356062066e-06   -3.6180505494033997e-07
1.9872527721588896e-05   0.0   -3.0439895491496932e-05
1.9872527721588896e-05   0.0   -3.0439895491496932e-05
1.9872527721588896e-05   0.0   -3.0439895491496932e-05
1.9872527721588896e-05   0.0   -3.0439895491496932e-05
2.2414139848592554e-06   -1.7505897716453816e-06   -4.352067293636031e-09
2.2414139848592554e-06   -1.7505897716453816e-06   -4.352067293636031e-09
2.2414139848592554e-06   -1.7505897716453816e-06   -4.352067293636031e-09
2.2414139848592554e-06   -1.7505897716453816e-06   -4.352067293636031e-09
1.0873371831272514e-05   -1.2942591302007242e-06   -1.4664746862849185e-05
1.0873371831272514e-05   -1.2942591302007242e-06   -1.4664746862849185e-05
1.0873371831272514e-05   -1.2942591302007242e-06   -1.4664746862849185e-05
1.0873371831272514e-05   -1.2942591302007242e-06   -1.4664746862849185e-05
2.2414139848592554e-06   0.0   -2.93895416285097e-05
2.2414139848592554e-06   0.0   -2.93895416285097e-05
2.2414139848592554e-06   0.0   -2.93895416285097e-05
2.2414139848592554e-06   0.0   -2.93895416285097e-05
1.9872527721588896e-05   -1.7505897716453816e-06   -1.0547059302808655e-06
1.9872527721588896e-05   -1.7505897716453816e-06   -1.0547059302808655e-06
1.9872527721588896e-05   -1.7505897716453816e-06   -1.0547059302808655e-06
1.9872527721588896e-05   -1.7505897716453816e-06   -1.0547059302808655e-06
1.979680761247076e-05   0.0   -3.0005303346384502e-05
1.979680761247076e-05   0.0   -3.0005303346384502e-05
1.979680761247076e-05   0.0   -3.0005303346384502e-05
1.979680761247076e-05   0.0   -3.0005303346384502e-05
2.5324084289553216e-06   -1.0974876371361352e-06   -5.728121249104196e-07
2.5324084289553216e-06   -1.0974876371361352e-06   -5.728121249104196e-07
2.5324084289553216e-06   -1.0974876371361352e-06   -5.728121249104196e-07
2.5324084289553216e-06   -1.0974876371361352e-06   -5.728121249104196e-07
1.1019110798665008e-05   -5.131347648956642e-07   -1.5067927797770835e-05
1.1019110798665008e-05   -5.131347648956642e-07   -1.5067927797770835e-05
1.1019110798665008e-05   -5.131347648956642e-07   -1.5067927797770835e-05
1.1019110798665008e-05   -5.131347648956642e-07   -1.5067927797770835e-05
2.5324084289553195e-06   0.0   -2.9346810764102793e-05
2.5324084289553195e-06   0.0   -2.9346810764102793e-05
2.5324084289553195e-06   0.0   -2.9346810764102793e-05
2.5324084289553195e-06   0.0   -2.9346810764102793e-05
1.979680761247076e-05   -1.0974876371361352e-06   -1.2313047071921043e-06
1.979680761247076e-05   -1.0974876371361352e-06   -1.2313047071921043e-06
1.979680761247076e-05   -1.0974876371361352e-06   -1.2313047071921043e-06
1.979680761247076e-05   -1.0974876371361352e-06   -1.2313047071921043e-06
2.0189235753831183e-05   0.0   -2.884629235559626e-05
2.0189235753831183e-05   0.0   -2.884629235559626e-05
2.0189235753831183e-05   0.0   -2.884629235559626e-05
2.0189235753831183e-05   0.0   -2.884629235559626e-05
2.920983109735942e-06   -2.2043646925234349e-07   6.639059944721074e-08
2.920983109735942e-06   -2.2043646925234349e-07   6.639059944721074e-08
2.920983109735942e-06   -2.2043646925234349e-07   6.639059944721074e-08
2.920983109735942e-06   -2.2043646925234349e-07   6.639059944721074e-08
1.1360822091393244e-05   4.1709867375546567e-07   -1.4382528789119629e-05
1.1360822091393244e-05   4.1709867375546567e-07   -1.4382528789119629e-05
1.1360822091393244e-05   4.1709867375546567e-07   -1.4382528789119629e-05
1.1360822091393244e-05   4.1709867375546567e-07   -1.4382528789119629e-05
1.98263758373279e-05   0.0   -3.02820715488933e-05
1.98263758373279e-05   0.0   -3.02820715488933e-05
1.98263758373279e-05   0.0   -3.02820715488933e-05
1.98263758373279e-05   0.0   -3.02820715488933e-05
4.48184926160719e-05   -5.9024078979923454e-06   7.830011676884867e-06
4.48184926160719e-05   -5.9024078979923454e-06   7.830011676884867e-06
4.48184926160719e-05   -5.9024078979923454e-06   7.830011676884867e-06
4.48184926160719e-05   -5.9024078979923454e-06   7.830011676884867e-06
4.2105952049362866e-05   0.0   -3.344964803812646e-05
4.2105952049362866e-05   0.0   -3.344964803812646e-05
4.2105952049362866e-05   0.0   -3.344964803812646e-05
4.2105952049362866e-05   0.0   -3.344964803812646e-05
1.9872527721588896e-05   -5.0162542443825465e-06   6.615811721459685e-06
1.9872527721588896e-05   -5.0162542443825465e-06   6.615811721459685e-06
1.9872527721588896e-05   -5.0162542443825465e-06   6.615811721459685e-06
1.9872527721588896e-05   -5.0162542443825465e-06   6.615811721459685e-06
3.0966163943345385e-05   -2.6396470743609677e-06   -1.3299546283480724e-05
3.0966163943345385e-05   -2.6396470743609677e-06   -1.3299546283480724e-05
3.0966163943345385e-05   -2.6396470743609677e-06   -1.3299546283480724e-05
3.0966163943345385e-05   -2.6396470743609677e-06   -1.3299546283480724e-05
1.987252772158888e-05   0.0   -3.0439895491496905e-05
1.987252772158888e-05   0.0   -3.0439895491496905e-05
1.987252772158888e-05   0.0   -3.0439895491496905e-05
1.987252772158888e-05   0.0   -3.0439895491496905e-05
4.2105952049362724e-05   -5.016254244382533e-06   3.606059174830135e-06
4.2105952049362724e-05   -5.016254244382533e-06   3.606059174830135e-06
4.2105952049362724e-05   -5.016254244382533e-06   3.606059174830135e-06
4.2105952049362724e-05   -5.016254244382533e-06   3.606059174830135e-06
4.085933297451421e-05   0.0   -3.275431449443278e-05
4.085933297451421e-05   0.0   -3.275431449443278e-05
4.085933297451421e-05   0.0   -3.275431449443278e-05
4.085933297451421e-05   0.0   -3.275431449443278e-05
1.979680761247076e-05   -4.581685246747138e-06   5.0989055903545745e-06
1.979680761247076e-05   -4.581685246747138e-06   5.0989055903545745e-06
1.979680761247076e-05   -4.581685246747138e-06   5.0989055903545745e-06
1.979680761247076e-05   -4.581685246747138e-06   5.0989055903545745e-06
3.0365930348051536e-05   -1.9286825024465423e-06   -1.410810061552707e-05
3.0365930348051536e-05   -1.9286825024465423e-06   -1.410810061552707e-05
3.0365930348051536e-05   -1.9286825024465423e-06   -1.410810061552707e-05
3.0365930348051536e-05   -1.9286825024465423e-06   -1.410810061552707e-05
1.979680761247076e-05   0.0   -3.0005303346384502e-05
1.979680761247076e-05   0.0   -3.0005303346384502e-05
1.979680761247076e-05   0.0   -3.0005303346384502e-05
1.979680761247076e-05   0.0   -3.0005303346384502e-05
4.085933297451407e-05   -4.5816852467471175e-06   2.3498944423062864e-06
4.085933297451407e-05   -4.5816852467471175e-06   2.3498944423062864e-06
4.085933297451407e-05   -4.5816852467471175e-06   2.3498944423062864e-06
4.085933297451407e-05   -4.5816852467471175e-06   2.3498944423062864e-06
3.8996904011263794e-05   0.0   -3.097883096027961e-05
3.8996904011263794e-05   0.0   -3.097883096027961e-05
3.8996904011263794e-05   0.0   -3.097883096027961e-05
3.8996904011263794e-05   0.0   -3.097883096027961e-05
2.0189235753831183e-05   -3.554231007805665e-06   2.499821406791527e-06
2.0189235753831183e-05   -3.554231007805665e-06   2.499821406791527e-06
2.0189235753831183e-05   -3.554231007805665e-06   2.499821406791527e-06
2.0189235753831183e-05   -3.554231007805665e-06   2.499821406791527e-06
2.939685581186731e-05   -8.112730115793026e-07   -1.4491986821004487e-05
2.939685581186731e-05   -8.112730115793026e-07   -1.4491986821004487e-05
2.939685581186731e-05   -8.112730115793026e-07   -1.4491986821004487e-05
2.939685581186731e-05   -8.112730115793026e-07   -1.4491986821004487e-05
-4.378051475921573e-05   5.585260096377522e-06   -2.8806697670619276e-05
-4.378051475921573e-05   5.585260096377522e-06   -2.8806697670619276e-05