<?xml version="1.0"?> 
<VTKFile type="UnstructuredGrid"> 
   <UnstructuredGrid> 
      <Piece NumberOfPoints="6000"  NumberOfCells="1500">  
          <Points>  
             <DataArray type="Float64" NumberOfComponents="3" format="ascii">   
-500.0   0.0   0.0
-450.0   0.0   0.0
-500.0   30.0   0.0
-500.0   0.0   16.666666666666668
-450.0   0.0   0.0
-450.0   30.0   0.0
-500.0   30.0   0.0
-450.0   30.0   16.666666666666668
-500.0   0.0   16.666666666666668
-500.0   30.0   16.666666666666668
-450.0   30.0   16.666666666666668
-500.0   30.0   0.0
-500.0   0.0   16.666666666666668
-450.0   30.0   16.666666666666668
-450.0   0.0   16.666666666666668
-450.0   0.0   0.0
-500.0   0.0   16.666666666666668
-450.0   30.0   16.666666666666668
-450.0   0.0   0.0
-500.0   30.0   0.0
-500.0   0.0   16.666666666666668
-450.0   0.0   16.666666666666668
-500.0   30.0   16.666666666666668
-500.0   0.0   33.333333333333336
-450.0   0.0   16.666666666666668
-450.0   30.0   16.666666666666668
-500.0   30.0   16.666666666666668
-450.0   30.0   33.333333333333336
-500.0   0.0   33.333333333333336
-500.0   30.0   33.333333333333336
-450.0   30.0   33.333333333333336
-500.0   30.0   16.666666666666668
-500.0   0.0   33.333333333333336
-450.0   30.0   33.333333333333336
-450.0   0.0   33.333333333333336
-450.0   0.0   16.666666666666668
-500.0   0.0   33.333333333333336
-450.0   30.0   33.333333333333336
-450.0   0.0   16.666666666666668
-500.0   30.0   16.666666666666668
-500.0   0.0   33.333333333333336
-450.0   0.0   33.333333333333336
-500.0   30.0   33.333333333333336
-500.0   0.0   50.0
-450.0   0.0   33.333333333333336
-450.0   30.0   33.333333333333336
-500.0   30.0   33.333333333333336
-450.0   30.0   50.0
-500.0   0.0   50.0
-500.0   30.0   50.0
-450.0   30.0   50.0
-500.0   30.0   33.333333333333336
-500.0   0.0   50.0
-450.0   30.0   50.0
-450.0   0.0   50.0
-450.0   0.0   33.333333333333336
-500.0   0.0   50.0
-450.0   30.0   50.0
-450.0   0.0   33.333333333333336
-500.0   30.0   33.333333333333336
-500.0   30.0   0.0
-450.0   30.0   0.0
-500.0   60.0   0.0
-500.0   30.0   16.666666666666668
-450.0   30.0   0.0
-450.0   60.0   0.0
-500.0   60.0   0.0
-450.0   60.0   16.666666666666668
-500.0   30.0   16.666666666666668
-500.0   60.0   16.666666666666668
-450.0   60.0   16.666666666666668
-500.0   60.0   0.0
-500.0   30.0   16.666666666666668
-450.0   60.0   16.666666666666668
-450.0   30.0   16.666666666666668
-450.0   30.0   0.0
-500.0   30.0   16.666666666666668
-450.0   60.0   16.666666666666668
-450.0   30.0   0.0
-500.0   60.0   0.0
-500.0   30.0   16.666666666666668
-450.0   30.0   16.666666666666668
-500.0   60.0   16.666666666666668
-500.0   30.0   33.333333333333336
-450.0   30.0   16.666666666666668
-450.0   60.0   16.666666666666668
-500.0   60.0   16.666666666666668
-450.0   60.0   33.333333333333336
-500.0   30.0   33.333333333333336
-500.0   60.0   33.333333333333336
-450.0   60.0   33.333333333333336
-500.0   60.0   16.666666666666668
-500.0   30.0   33.333333333333336
-450.0   60.0   33.333333333333336
-450.0   30.0   33.333333333333336
-450.0   30.0   16.666666666666668
-500.0   30.0   33.333333333333336
-450.0   60.0   33.333333333333336
-450.0   30.0   16.666666666666668
-500.0   60.0   16.666666666666668
-500.0   30.0   33.333333333333336
-450.0   30.0   33.333333333333336
-500.0   60.0   33.333333333333336
-500.0   30.0   50.0
-450.0   30.0   33.333333333333336
-450.0   60.0   33.333333333333336
-500.0   60.0   33.333333333333336
-450.0   60.0   50.0
-500.0   30.0   50.0
-500.0   60.0   50.0
-450.0   60.0   50.0
-500.0   60.0   33.333333333333336
-500.0   30.0   50.0
-450.0   60.0   50.0
-450.0   30.0   50.0
-450.0   30.0   33.333333333333336
-500.0   30.0   50.0
-450.0   60.0   50.0
-450.0   30.0   33.333333333333336
-500.0   60.0   33.333333333333336
-500.0   60.0   0.0
-450.0   60.0   0.0
-500.0   90.0   0.0
-500.0   60.0   16.666666666666668
-450.0   60.0   0.0
-450.0   90.0   0.0
-500.0   90.0   0.0
-450.0   90.0   16.666666666666668
-500.0   60.0   16.666666666666668
-500.0   90.0   16.666666666666668
-450.0   90.0   16.666666666666668
-500.0   90.0   0.0
-500.0   60.0   16.666666666666668
-450.0   90.0   16.666666666666668
-450.0   60.0   16.666666666666668
-450.0   60.0   0.0
-500.0   60.0   16.666666666666668
-450.0   90.0   16.666666666666668
-450.0   60.0   0.0
-500.0   90.0   0.0
-500.0   60.0   16.666666666666668
-450.0   60.0   16.666666666666668
-500.0   90.0   16.666666666666668
-500.0   60.0   33.333333333333336
-450.0   60.0   16.666666666666668
-450.0   90.0   16.666666666666668
-500.0   90.0   16.666666666666668
-450.0   90.0   33.333333333333336
-500.0   60.0   33.333333333333336
-500.0   90.0   33.333333333333336
-450.0   90.0   33.333333333333336
-500.0   90.0   16.666666666666668
-500.0   60.0   33.333333333333336
-450.0   90.0   33.333333333333336
-450.0   60.0   33.333333333333336
-450.0   60.0   16.666666666666668
-500.0   60.0   33.333333333333336
-450.0   90.0   33.333333333333336
-450.0   60.0   16.666666666666668
-500.0   90.0   16.666666666666668
-500.0   60.0   33.333333333333336
-450.0   60.0   33.333333333333336
-500.0   90.0   33.333333333333336
-500.0   60.0   50.0
-450.0   60.0   33.333333333333336
-450.0   90.0   33.333333333333336
-500.0   90.0   33.333333333333336
-450.0   90.0   50.0
-500.0   60.0   50.0
-500.0   90.0   50.0
-450.0   90.0   50.0
-500.0   90.0   33.333333333333336
-500.0   60.0   50.0
-450.0   90.0   50.0
-450.0   60.0   50.0
-450.0   60.0   33.333333333333336
-500.0   60.0   50.0
-450.0   90.0   50.0
-450.0   60.0   33.333333333333336
-500.0   90.0   33.333333333333336
-500.0   90.0   0.0
-450.0   90.0   0.0
-500.0   120.0   0.0
-500.0   90.0   16.666666666666668
-450.0   90.0   0.0
-450.0   120.0   0.0
-500.0   120.0   0.0
-450.0   120.0   16.666666666666668
-500.0   90.0   16.666666666666668
-500.0   120.0   16.666666666666668
-450.0   120.0   16.666666666666668
-500.0   120.0   0.0
-500.0   90.0   16.666666666666668
-450.0   120.0   16.666666666666668
-450.0   90.0   16.666666666666668
-450.0   90.0   0.0
-500.0   90.0   16.666666666666668
-450.0   120.0   16.666666666666668
-450.0   90.0   0.0
-500.0   120.0   0.0
-500.0   90.0   16.666666666666668
-450.0   90.0   16.666666666666668
-500.0   120.0   16.666666666666668
-500.0   90.0   33.333333333333336
-450.0   90.0   16.666666666666668
-450.0   120.0   16.666666666666668
-500.0   120.0   16.666666666666668
-450.0   120.0   33.333333333333336
-500.0   90.0   33.333333333333336
-500.0   120.0   33.333333333333336
-450.0   120.0   33.333333333333336
-500.0   120.0   16.666666666666668
-500.0   90.0   33.333333333333336
-450.0   120.0   33.333333333333336
-450.0   90.0   33.333333333333336
-450.0   90.0   16.666666666666668
-500.0   90.0   33.333333333333336
-450.0   120.0   33.333333333333336
-450.0   90.0   16.666666666666668
-500.0   120.0   16.666666666666668
-500.0   90.0   33.333333333333336
-450.0   90.0   33.333333333333336
-500.0   120.0   33.333333333333336
-500.0   90.0   50.0
-450.0   90.0   33.333333333333336
-450.0   120.0   33.333333333333336
-500.0   120.0   33.333333333333336
-450.0   120.0   50.0
-500.0   90.0   50.0
-500.0   120.0   50.0
-450.0   120.0   50.0
-500.0   120.0   33.333333333333336
-500.0   90.0   50.0
-450.0   120.0   50.0
-450.0   90.0   50.0
-450.0   90.0   33.333333333333336
-500.0   90.0   50.0
-450.0   120.0   50.0
-450.0   90.0   33.333333333333336
-500.0   120.0   33.333333333333336
-500.0   120.0   0.0
-450.0   120.0   0.0
-500.0   150.0   0.0
-500.0   120.0   16.666666666666668
-450.0   120.0   0.0
-450.0   150.0   0.0
-500.0   150.0   0.0
-450.0   150.0   16.666666666666668
-500.0   120.0   16.666666666666668
-500.0   150.0   16.666666666666668
-450.0   150.0   16.666666666666668
-500.0   150.0   0.0
-500.0   120.0   16.666666666666668
-450.0   150.0   16.666666666666668
-450.0   120.0   16.666666666666668
-450.0   120.0   0.0
-500.0   120.0   16.666666666666668
-450.0   150.0   16.666666666666668
-450.0   120.0   0.0
-500.0   150.0   0.0
-500.0   120.0   16.666666666666668
-450.0   120.0   16.666666666666668
-500.0   150.0   16.666666666666668
-500.0   120.0   33.333333333333336
-450.0   120.0   16.666666666666668
-450.0   150.0   16.666666666666668
-500.0   150.0   16.666666666666668
-450.0   150.0   33.333333333333336
-500.0   120.0   33.333333333333336
-500.0   150.0   33.333333333333336
-450.0   150.0   33.333333333333336
-500.0   150.0   16.666666666666668
-500.0   120.0   33.333333333333336
-450.0   150.0   33.333333333333336
-450.0   120.0   33.333333333333336
-450.0   120.0   16.666666666666668
-500.0   120.0   33.333333333333336
-450.0   150.0   33.333333333333336
-450.0   120.0   16.666666666666668
-500.0   150.0   16.666666666666668
-500.0   120.0   33.333333333333336
-450.0   120.0   33.333333333333336
-500.0   150.0   33.333333333333336
-500.0   120.0   50.0
-450.0   120.0   33.333333333333336
-450.0   150.0   33.333333333333336
-500.0   150.0   33.333333333333336
-450.0   150.0   50.0
-500.0   120.0   50.0
-500.0   150.0   50.0
-450.0   150.0   50.0
-500.0   150.0   33.333333333333336
-500.0   120.0   50.0
-450.0   150.0   50.0
-450.0   120.0   50.0
-450.0   120.0   33.333333333333336
-500.0   120.0   50.0
-450.0   150.0   50.0
-450.0   120.0   33.333333333333336
-500.0   150.0   33.333333333333336
-450.0   0.0   0.0
-400.0   0.0   0.0
-450.0   30.0   0.0
-450.0   0.0   16.666666666666668
-400.0   0.0   0.0
-400.0   30.0   0.0
-450.0   30.0   0.0
-400.0   30.0   16.666666666666668
-450.0   0.0   16.666666666666668
-450.0   30.0   16.666666666666668
-400.0   30.0   16.666666666666668
-450.0   30.0   0.0
-450.0   0.0   16.666666666666668
-400.0   30.0   16.666666666666668
-400.0   0.0   16.666666666666668
-400.0   0.0   0.0
-450.0   0.0   16.666666666666668
-400.0   30.0   16.666666666666668
-400.0   0.0   0.0
-450.0   30.0   0.0
-450.0   0.0   16.666666666666668
-400.0   0.0   16.666666666666668
-450.0   30.0   16.666666666666668
[...]
          <PointData>  
             <DataArray type="Float64" NumberOfComponents="3" Name="Strains" format="ascii">   
-1.3011568811720815e-05   0.0   -8.765400633043455e-06
-1.3011568811720815e-05   0.0   -8.765400633043455e-06
-1.3011568811720815e-05   0.0   -8.765400633043455e-06
-1.3011568811720815e-05   0.0   -8.765400633043455e-06
-8.25716895674e-06   1.4114596980913746e-06   5.474944112710383e-09
-8.25716895674e-06   1.4114596980913746e-06   5.474944112710383e-09
-8.25716895674e-06   1.4114596980913746e-06   5.474944112710383e-09
-8.25716895674e-06   1.4114596980913746e-06   5.474944112710383e-09
-8.078434054844101e-06   0.0   -8.302558785152043e-06
-8.078434054844101e-06   0.0   -8.302558785152043e-06
-8.078434054844101e-06   0.0   -8.302558785152043e-06
-8.078434054844101e-06   0.0   -8.302558785152043e-06
-1.3598135785058857e-05   1.7081239535861e-06   -1.2793027361240915e-07
-1.3598135785058857e-05   1.7081239535861e-06   -1.2793027361240915e-07
-1.3598135785058857e-05   1.7081239535861e-06   -1.2793027361240915e-07
-1.3598135785058857e-05   1.7081239535861e-06   -1.2793027361240915e-07
-1.054500143328244e-05   3.857015399095094e-07   -4.423034078367144e-06
-1.054500143328244e-05   3.857015399095094e-07   -4.423034078367144e-06
-1.054500143328244e-05   3.857015399095094e-07   -4.423034078367144e-06
-1.054500143328244e-05   3.857015399095094e-07   -4.423034078367144e-06
-1.359813578505888e-05   0.0   -9.327433157303705e-06
-1.359813578505888e-05   0.0   -9.327433157303705e-06
-1.359813578505888e-05   0.0   -9.327433157303705e-06
-1.359813578505888e-05   0.0   -9.327433157303705e-06
-8.078434054844101e-06   1.708123953586105e-06   8.969440985392529e-07
-8.078434054844101e-06   1.708123953586105e-06   8.969440985392529e-07
-8.078434054844101e-06   1.708123953586105e-06   8.969440985392529e-07
-8.078434054844101e-06   1.708123953586105e-06   8.969440985392529e-07
-8.084526561204815e-06   0.0   -8.501283916858025e-06
-8.084526561204815e-06   0.0   -8.501283916858025e-06
-8.084526561204815e-06   0.0   -8.501283916858025e-06
-8.084526561204815e-06   0.0   -8.501283916858025e-06
-1.4002413926501376e-05   1.8338924872244975e-06   2.6152619963492045e-07
-1.4002413926501376e-05   1.8338924872244975e-06   2.6152619963492045e-07
-1.4002413926501376e-05   1.8338924872244975e-06   2.6152619963492045e-07
-1.4002413926501376e-05   1.8338924872244975e-06   2.6152619963492045e-07
-1.0841331173131829e-05   6.884577003714008e-07   -4.319684183869133e-06
-1.0841331173131829e-05   6.884577003714008e-07   -4.319684183869133e-06
-1.0841331173131829e-05   6.884577003714008e-07   -4.319684183869133e-06
-1.0841331173131829e-05   6.884577003714008e-07   -4.319684183869133e-06
-1.4002413926501401e-05   0.0   -9.601619409192725e-06
-1.4002413926501401e-05   0.0   -9.601619409192725e-06
-1.4002413926501401e-05   0.0   -9.601619409192725e-06
-1.4002413926501401e-05   0.0   -9.601619409192725e-06
-8.084526561204815e-06   1.8338924872245009e-06   1.361861691969617e-06
-8.084526561204815e-06   1.8338924872245009e-06   1.361861691969617e-06
-8.084526561204815e-06   1.8338924872245009e-06   1.361861691969617e-06
-8.084526561204815e-06   1.8338924872245009e-06   1.361861691969617e-06
-8.061462743176483e-06   0.0   -8.554980204904963e-06
-8.061462743176483e-06   0.0   -8.554980204904963e-06
-8.061462743176483e-06   0.0   -8.554980204904963e-06
-8.061462743176483e-06   0.0   -8.554980204904963e-06
-1.4889903526822768e-05   2.101342691318667e-06   1.5649488197143497e-06
-1.4889903526822768e-05   2.101342691318667e-06   1.5649488197143497e-06
-1.4889903526822768e-05   2.101342691318667e-06   1.5649488197143497e-06
-1.4889903526822768e-05   2.101342691318667e-06   1.5649488197143497e-06
-1.1031938334838921e-05   8.721993369064667e-07   -4.127507154278066e-06
-1.1031938334838921e-05   8.721993369064667e-07   -4.127507154278066e-06
-1.1031938334838921e-05   8.721993369064667e-07   -4.127507154278066e-06
-1.1031938334838921e-05   8.721993369064667e-07   -4.127507154278066e-06
-8.257168956740015e-06   0.0   -7.918524814188631e-06
-8.257168956740015e-06   0.0   -7.918524814188631e-06
-8.257168956740015e-06   0.0   -7.918524814188631e-06
-8.257168956740015e-06   0.0   -7.918524814188631e-06
-3.779660286466192e-06   5.118849063728065e-07   -1.4887941990858128e-07
-3.779660286466192e-06   5.118849063728065e-07   -1.4887941990858128e-07
-3.779660286466192e-06   5.118849063728065e-07   -1.4887941990858128e-07
-3.779660286466192e-06   5.118849063728065e-07   -1.4887941990858128e-07
-3.6189569733135924e-06   0.0   -7.85937519655801e-06
-3.6189569733135924e-06   0.0   -7.85937519655801e-06
-3.6189569733135924e-06   0.0   -7.85937519655801e-06
-3.6189569733135924e-06   0.0   -7.85937519655801e-06
-8.078434054844101e-06   7.386393143233897e-07   -8.700969826011984e-07
-8.078434054844101e-06   7.386393143233897e-07   -8.700969826011984e-07
-8.078434054844101e-06   7.386393143233897e-07   -8.700969826011984e-07
-8.078434054844101e-06   7.386393143233897e-07   -8.700969826011984e-07
-5.938062965026793e-06   4.9291348025516927e-08   -4.023773352517959e-06
-5.938062965026793e-06   4.9291348025516927e-08   -4.023773352517959e-06
-5.938062965026793e-06   4.9291348025516927e-08   -4.023773352517959e-06
-5.938062965026793e-06   4.9291348025516927e-08   -4.023773352517959e-06
-8.078434054844093e-06   0.0   -8.302558785152036e-06
-8.078434054844093e-06   0.0   -8.302558785152036e-06
-8.078434054844093e-06   0.0   -8.302558785152036e-06
-8.078434054844093e-06   0.0   -8.302558785152036e-06
-3.6189569733135924e-06   7.386393143233897e-07   -4.2691339400716355e-07
-3.6189569733135924e-06   7.386393143233897e-07   -4.2691339400716355e-07
-3.6189569733135924e-06   7.386393143233897e-07   -4.2691339400716355e-07
-3.6189569733135924e-06   7.386393143233897e-07   -4.2691339400716355e-07
-3.5218785485865074e-06   0.0   -7.954580018646906e-06
-3.5218785485865074e-06   0.0   -7.954580018646906e-06
-3.5218785485865074e-06   0.0   -7.954580018646906e-06
-3.5218785485865074e-06   0.0   -7.954580018646906e-06
-8.084526561204815e-06   9.111731636851988e-07   -8.968705624941815e-07
-8.084526561204815e-06   9.111731636851988e-07   -8.968705624941815e-07
-8.084526561204815e-06   9.111731636851988e-07   -8.968705624941815e-07
-8.084526561204815e-06   9.111731636851988e-07   -8.968705624941815e-07
-5.800156301715292e-06   2.899823054209494e-07   -4.331439813351466e-06
-5.800156301715292e-06   2.899823054209494e-07   -4.331439813351466e-06
-5.800156301715292e-06   2.899823054209494e-07   -4.331439813351466e-06
-5.800156301715292e-06   2.899823054209494e-07   -4.331439813351466e-06
-8.084526561204815e-06   0.0   -8.501283916858025e-06
-8.084526561204815e-06   0.0   -8.501283916858025e-06
-8.084526561204815e-06   0.0   -8.501283916858025e-06
-8.084526561204815e-06   0.0   -8.501283916858025e-06
-3.5218785485865074e-06   9.111731636851988e-07   -3.501666642830613e-07
-3.5218785485865074e-06   9.111731636851988e-07   -3.501666642830613e-07
-3.5218785485865074e-06   9.111731636851988e-07   -3.501666642830613e-07
-3.5218785485865074e-06   9.111731636851988e-07   -3.501666642830613e-07
-3.4307239270429985e-06   0.0   -7.916451089396674e-06
-3.4307239270429985e-06   0.0   -7.916451089396674e-06
-3.4307239270429985e-06   0.0   -7.916451089396674e-06
-3.4307239270429985e-06   0.0   -7.916451089396674e-06
-8.06146274317646e-06   1.0642151925138008e-06   -8.370821780158221e-07
-8.06146274317646e-06   1.0642151925138008e-06   -8.370821780158221e-07
-8.06146274317646e-06   1.0642151925138008e-06   -8.370821780158221e-07
-8.06146274317646e-06   1.0642151925138008e-06   -8.370821780158221e-07
-5.757625244123905e-06   4.873606895511192e-07   -4.330698641325836e-06
-5.757625244123905e-06   4.873606895511192e-07   -4.330698641325836e-06
-5.757625244123905e-06   4.873606895511192e-07   -4.330698641325836e-06
-5.757625244123905e-06   4.873606895511192e-07   -4.330698641325836e-06
-3.779660286466198e-06   0.0   -7.611393870364946e-06
-3.779660286466198e-06   0.0   -7.611393870364946e-06
-3.779660286466198e-06   0.0   -7.611393870364946e-06
-3.779660286466198e-06   0.0   -7.611393870364946e-06
4.364803614629022e-07   -6.993256020090469e-08   -6.264523266036472e-07
4.364803614629022e-07   -6.993256020090469e-08   -6.264523266036472e-07
4.364803614629022e-07   -6.993256020090469e-08   -6.264523266036472e-07
4.364803614629022e-07   -6.993256020090469e-08   -6.264523266036472e-07
5.46793819326025e-07   0.0   -7.77965874256074e-06
5.46793819326025e-07   0.0   -7.77965874256074e-06
5.46793819326025e-07   0.0   -7.77965874256074e-06
5.46793819326025e-07   0.0   -7.77965874256074e-06
-3.618956973313586e-06   1.328607566620693e-07   -9.164572088253102e-07
-3.618956973313586e-06   1.328607566620693e-07   -9.164572088253102e-07
-3.618956973313586e-06   1.328607566620693e-07   -9.164572088253102e-07
-3.618956973313586e-06   1.328607566620693e-07   -9.164572088253102e-07
-1.61643323357008e-06   -1.4022072682985084e-07   -4.090147884969319e-06
-1.61643323357008e-06   -1.4022072682985084e-07   -4.090147884969319e-06
-1.61643323357008e-06   -1.4022072682985084e-07   -4.090147884969319e-06
-1.61643323357008e-06   -1.4022072682985084e-07   -4.090147884969319e-06
-3.6189569733135924e-06   0.0   -7.85937519655801e-06
-3.6189569733135924e-06   0.0   -7.85937519655801e-06
-3.6189569733135924e-06   0.0   -7.85937519655801e-06
-3.6189569733135924e-06   0.0   -7.85937519655801e-06
5.46793819326026e-07   1.328607566620693e-07   -8.367407548280683e-07
5.46793819326026e-07   1.328607566620693e-07   -8.367407548280683e-07
5.46793819326026e-07   1.328607566620693e-07   -8.367407548280683e-07
5.46793819326026e-07   1.328607566620693e-07   -8.367407548280683e-07
6.360661970020616e-07   0.0   -7.76724707873833e-06
6.360661970020616e-07   0.0   -7.76724707873833e-06
6.360661970020616e-07   0.0   -7.76724707873833e-06
6.360661970020616e-07   0.0   -7.76724707873833e-06
-3.521878548586495e-06   3.122215665142657e-07   -1.0246721093326197e-06
-3.521878548586495e-06   3.122215665142657e-07   -1.0246721093326197e-06
-3.521878548586495e-06   3.122215665142657e-07   -1.0246721093326197e-06
-3.521878548586495e-06   3.122215665142657e-07   -1.0246721093326197e-06
-1.4914453881557623e-06   7.677343151638741e-08   -4.267458495718454e-06
-1.4914453881557623e-06   7.677343151638741e-08   -4.267458495718454e-06
-1.4914453881557623e-06   7.677343151638741e-08   -4.267458495718454e-06
-1.4914453881557623e-06   7.677343151638741e-08   -4.267458495718454e-06
-3.5218785485865074e-06   0.0   -7.954580018646906e-06
-3.5218785485865074e-06   0.0   -7.954580018646906e-06
-3.5218785485865074e-06   0.0   -7.954580018646906e-06
-3.5218785485865074e-06   0.0   -7.954580018646906e-06
6.360661970020627e-07   3.122215665142674e-07   -8.373391694240625e-07
6.360661970020627e-07   3.122215665142674e-07   -8.373391694240625e-07
6.360661970020627e-07   3.122215665142674e-07   -8.373391694240625e-07
6.360661970020627e-07   3.122215665142674e-07   -8.373391694240625e-07
7.506422246991835e-07   0.0   -7.6050662320573625e-06
7.506422246991835e-07   0.0   -7.6050662320573625e-06
7.506422246991835e-07   0.0   -7.6050662320573625e-06
7.506422246991835e-07   0.0   -7.6050662320573625e-06
-3.4307239270429896e-06   5.189747622321761e-07   -9.475075031597034e-07
-3.4307239270429896e-06   5.189747622321761e-07   -9.475075031597034e-07
-3.4307239270429896e-06   5.189747622321761e-07   -9.475075031597034e-07
-3.4307239270429896e-06   5.189747622321761e-07   -9.475075031597034e-07
-1.3856181619436587e-06   2.9126148882460704e-07   -4.2193891476140535e-06
-1.3856181619436587e-06   2.9126148882460704e-07   -4.2193891476140535e-06
-1.3856181619436587e-06   2.9126148882460704e-07   -4.2193891476140535e-06
-1.3856181619436587e-06   2.9126148882460704e-07   -4.2193891476140535e-06
4.36480361462903e-07   0.0   -7.653353406485489e-06
4.36480361462903e-07   0.0   -7.653353406485489e-06
4.36480361462903e-07   0.0   -7.653353406485489e-06
4.36480361462903e-07   0.0   -7.653353406485489e-06
5.027236771108559e-06   -5.897314647185468e-07   -3.5593160257385246e-07
5.027236771108559e-06   -5.897314647185468e-07   -3.5593160257385246e-07
5.027236771108559e-06   -5.897314647185468e-07   -3.5593160257385246e-07
5.027236771108559e-06   -5.897314647185468e-07   -3.5593160257385246e-07
5.057065175192281e-06   0.0   -8.043583758752696e-06
5.057065175192281e-06   0.0   -8.043583758752696e-06
5.057065175192281e-06   0.0   -8.043583758752696e-06
5.057065175192281e-06   0.0   -8.043583758752696e-06
5.467938193260269e-07   -4.3987502698654653e-07   -2.6253981611701087e-07
5.467938193260269e-07   -4.3987502698654653e-07   -2.6253981611701087e-07
5.467938193260269e-07   -4.3987502698654653e-07   -2.6253981611701087e-07
5.467938193260269e-07   -4.3987502698654653e-07   -2.6253981611701087e-07
2.746772768327592e-06   -3.251919602226726e-07   -3.997981237844607e-06
2.746772768327592e-06   -3.251919602226726e-07   -3.997981237844607e-06
2.746772768327592e-06   -3.251919602226726e-07   -3.997981237844607e-06
2.746772768327592e-06   -3.251919602226726e-07   -3.997981237844607e-06
5.467938193260269e-07   0.0   -7.779658742560767e-06
5.467938193260269e-07   0.0   -7.779658742560767e-06
5.467938193260269e-07   0.0   -7.779658742560767e-06
5.467938193260269e-07   0.0   -7.779658742560767e-06
5.057065175192281e-06   -4.3987502698654653e-07   -5.264648323089386e-07
5.057065175192281e-06   -4.3987502698654653e-07   -5.264648323089386e-07
5.057065175192281e-06   -4.3987502698654653e-07   -5.264648323089386e-07
5.057065175192281e-06   -4.3987502698654653e-07   -5.264648323089386e-07
5.053408354963968e-06   0.0   -7.928874072279683e-06
5.053408354963968e-06   0.0   -7.928874072279683e-06
5.053408354963968e-06   0.0   -7.928874072279683e-06
5.053408354963968e-06   0.0   -7.928874072279683e-06
6.360661970020627e-07   -2.6937832256889893e-07   -4.0501014880183633e-07
6.360661970020627e-07   -2.6937832256889893e-07   -4.0501014880183633e-07
6.360661970020627e-07   -2.6937832256889893e-07   -4.0501014880183633e-07
6.360661970020627e-07   -2.6937832256889893e-07   -4.0501014880183633e-07
2.8001010871449975e-06   -1.243461080990967e-07   -4.098754294388605e-06
2.8001010871449975e-06   -1.243461080990967e-07   -4.098754294388605e-06
2.8001010871449975e-06   -1.243461080990967e-07   -4.098754294388605e-06
2.8001010871449975e-06   -1.243461080990967e-07   -4.098754294388605e-06
6.360661970020621e-07   0.0   -7.767247078738337e-06
6.360661970020621e-07   0.0   -7.767247078738337e-06
6.360661970020621e-07   0.0   -7.767247078738337e-06
6.360661970020621e-07   0.0   -7.767247078738337e-06
5.053408354963968e-06   -2.6937832256889893e-07   -5.666371423431755e-07
5.053408354963968e-06   -2.6937832256889893e-07   -5.666371423431755e-07
5.053408354963968e-06   -2.6937832256889893e-07   -5.666371423431755e-07
5.053408354963968e-06   -2.6937832256889893e-07   -5.666371423431755e-07
5.168575062588638e-06   0.0   -7.629885727194206e-06
5.168575062588638e-06   0.0   -7.629885727194206e-06
5.168575062588638e-06   0.0   -7.629885727194206e-06
5.168575062588638e-06   0.0   -7.629885727194206e-06
7.506422246991847e-07   -4.136582522804938e-08   -2.4184483557495375e-07
7.506422246991847e-07   -4.136582522804938e-08   -2.4184483557495375e-07
7.506422246991847e-07   -4.136582522804938e-08   -2.4184483557495375e-07
7.506422246991847e-07   -4.136582522804938e-08   -2.4184483557495375e-07
2.902320629795348e-06   1.1446779295344864e-07   -3.921475681644123e-06
2.902320629795348e-06   1.1446779295344864e-07   -3.921475681644123e-06
2.902320629795348e-06   1.1446779295344864e-07   -3.921475681644123e-06
2.902320629795348e-06   1.1446779295344864e-07   -3.921475681644123e-06
5.027236771108559e-06   0.0   -8.007192285316618e-06
5.027236771108559e-06   0.0   -8.007192285316618e-06
5.027236771108559e-06   0.0   -8.007192285316618e-06
5.027236771108559e-06   0.0   -8.007192285316618e-06
1.1460153835278992e-05   -1.5090194608070862e-06   1.8089244784832482e-06
1.1460153835278992e-05   -1.5090194608070862e-06   1.8089244784832482e-06
1.1460153835278992e-05   -1.5090194608070862e-06   1.8089244784832482e-06
1.1460153835278992e-05   -1.5090194608070862e-06   1.8089244784832482e-06
1.0790067338671069e-05   0.0   -8.807325162908123e-06
1.0790067338671069e-05   0.0   -8.807325162908123e-06
1.0790067338671069e-05   0.0   -8.807325162908123e-06
1.0790067338671069e-05   0.0   -8.807325162908123e-06
5.057065175192281e-06   -1.2729023402590453e-06   1.5114198470452791e-06
5.057065175192281e-06   -1.2729023402590453e-06   1.5114198470452791e-06
5.057065175192281e-06   -1.2729023402590453e-06   1.5114198470452791e-06
5.057065175192281e-06   -1.2729023402590453e-06   1.5114198470452791e-06
7.908652054889813e-06   -6.667773979929219e-07   -3.6048999178102747e-06
7.908652054889813e-06   -6.667773979929219e-07   -3.6048999178102747e-06
7.908652054889813e-06   -6.667773979929219e-07   -3.6048999178102747e-06
7.908652054889813e-06   -6.667773979929219e-07   -3.6048999178102747e-06
5.057065175192277e-06   0.0   -8.043583758752689e-06
5.057065175192277e-06   0.0   -8.043583758752689e-06
5.057065175192277e-06   0.0   -8.043583758752689e-06
5.057065175192277e-06   0.0   -8.043583758752689e-06
1.0790067338671032e-05   -1.2729023402590402e-06   7.476784428898513e-07
1.0790067338671032e-05   -1.2729023402590402e-06   7.476784428898513e-07
1.0790067338671032e-05   -1.2729023402590402e-06   7.476784428898513e-07
1.0790067338671032e-05   -1.2729023402590402e-06   7.476784428898513e-07
1.0489194918621095e-05   0.0   -8.624413389309038e-06
1.0489194918621095e-05   0.0   -8.624413389309038e-06
1.0489194918621095e-05   0.0   -8.624413389309038e-06
1.0489194918621095e-05   0.0   -8.624413389309038e-06
5.053408354963968e-06   -1.1592321950489228e-06   1.1307702004821927e-06
5.053408354963968e-06   -1.1592321950489228e-06   1.1307702004821927e-06
5.053408354963968e-06   -1.1592321950489228e-06   1.1307702004821927e-06
5.053408354963968e-06   -1.1592321950489228e-06   1.1307702004821927e-06
7.773130046906684e-06   -4.840246921302848e-07   -3.807223787840182e-06
7.773130046906684e-06   -4.840246921302848e-07   -3.807223787840182e-06
7.773130046906684e-06   -4.840246921302848e-07   -3.807223787840182e-06
7.773130046906684e-06   -4.840246921302848e-07   -3.807223787840182e-06
5.053408354963968e-06   0.0   -7.928874072279683e-06
5.053408354963968e-06   0.0   -7.928874072279683e-06
5.053408354963968e-06   0.0   -7.928874072279683e-06
5.053408354963968e-06   0.0   -7.928874072279683e-06
1.048919491862106e-05   -1.1592321950489194e-06   4.3523088345283735e-07
1.048919491862106e-05   -1.1592321950489194e-06   4.3523088345283735e-07
1.048919491862106e-05   -1.1592321950489194e-06   4.3523088345283735e-07
1.048919491862106e-05   -1.1592321950489194e-06   4.3523088345283735e-07
1.0028698233516764e-05   0.0   -8.162694671001033e-06
1.0028698233516764e-05   0.0   -8.162694671001033e-06
1.0028698233516764e-05   0.0   -8.162694671001033e-06
1.0028698233516764e-05   0.0   -8.162694671001033e-06
5.168575062588638e-06   -8.880149063447376e-07   4.7031955768603155e-07
5.168575062588638e-06   -8.880149063447376e-07   4.7031955768603155e-07
5.168575062588638e-06   -8.880149063447376e-07   4.7031955768603155e-07
5.168575062588638e-06   -8.880149063447376e-07   4.7031955768603155e-07
7.541053294240374e-06   -1.948504989344707e-07   -3.899709472846352e-06
7.541053294240374e-06   -1.948504989344707e-07   -3.899709472846352e-06
7.541053294240374e-06   -1.948504989344707e-07   -3.899709472846352e-06
7.541053294240374e-06   -1.948504989344707e-07   -3.899709472846352e-06
-1.1122161246849289e-05   1.4114596980913712e-06   -7.447797858020506e-06
-1.1122161246849289e-05   1.4114596980913712e-06   -7.447797858020506e-06
-1.1122161246849289e-05   1.4114596980913712e-06   -7.447797858020506e-06
-1.1122161246849289e-05   1.4114596980913712e-06   -7.447797858020506e-06
-7.138690086179808e-06   1.2591770111732728e-06   -9.000488690555628e-07