<?xml version="1.0"?> 
<VTKFile type="UnstructuredGrid"> 
   <UnstructuredGrid> 
      <Piece NumberOfPoints="6000"  NumberOfCells="1500">  
          <Points>  
             <DataArray type="Float64" NumberOfComponents="3" format="ascii">   
-500.0   0.0   0.0
-450.0   0.0   0.0
-500.0   30.0   0.0
-500.0   0.0   16.666666666666668
-450.0   0.0   0.0
-450.0   30.0   0.0
-500.0   30.0   0.0
-450.0   30.0   16.666666666666668
-500.0   0.0   16.666666666666668
-500.0   30.0   16.666666666666668
-450.0   30.0   16.666666666666668
-500.0   30.0   0.0
-500.0   0.0   16.666666666666668
-450.0   30.0   16.666666666666668
-450.0   0.0   16.666666666666668
-450.0   0.0   0.0
-500.0   0.0   16.666666666666668
-450.0   30.0   16.666666666666668
-450.0   0.0   0.0
-500.0   30.0   0.0
-500.0   0.0   16.666666666666668
-450.0   0.0   16.666666666666668
-500.0   30.0   16.666666666666668
-500.0   0.0   33.333333333333336
-450.0   0.0   16.666666666666668
-450.0   30.0   16.666666666666668
-500.0   30.0   16.666666666666668
-450.0   30.0   33.333333333333336
-500.0   0.0   33.333333333333336
-500.0   30.0   33.333333333333336
-450.0   30.0   33.333333333333336
-500.0   30.0   16.666666666666668
-500.0   0.0   33.333333333333336
-450.0   30.0   33.333333333333336
-450.0   0.0   33.333333333333336
-450.0   0.0   16.666666666666668
-500.0   0.0   33.333333333333336
-450.0   30.0   33.333333333333336
-450.0   0.0   16.666666666666668
-500.0   30.0   16.666666666666668
-500.0   0.0   33.333333333333336
-450.0   0.0   33.333333333333336
-500.0   30.0   33.333333333333336
-500.0   0.0   50.0
-450.0   0.0   33.333333333333336
-450.0   30.0   33.333333333333336
-500.0   30.0   33.333333333333336
-450.0   30.0   50.0
-500.0   0.0   50.0
-500.0   30.0   50.0
-450.0   30.0   50.0
-500.0   30.0   33.333333333333336
-500.0   0.0   50.0
-450.0   30.0   50.0
-450.0   0.0   50.0
-450.0   0.0   33.333333333333336
-500.0   0.0   50.0
-450.0   30.0   50.0
-450.0   0.0   33.333333333333336
-500.0   30.0   33.333333333333336
-500.0   30.0   0.0
-450.0   30.0   0.0
-500.0   60.0   0.0
-500.0   30.0   16.666666666666668
-450.0   30.0   0.0
-450.0   60.0   0.0
-500.0   60.0   0.0
-450.0   60.0   16.666666666666668
-500.0   30.0   16.666666666666668
-500.0   60.0   16.666666666666668
-450.0   60.0   16.666666666666668
-500.0   60.0   0.0
-500.0   30.0   16.666666666666668
-450.0   60.0   16.666666666666668
-450.0   30.0   16.666666666666668
-450.0   30.0   0.0
-500.0   30.0   16.666666666666668
-450.0   60.0   16.666666666666668
-450.0   30.0   0.0
-500.0   60.0   0.0
-500.0   30.0   16.666666666666668
-450.0   30.0   16.666666666666668
-500.0   60.0   16.666666666666668
-500.0   30.0   33.333333333333336
-450.0   30.0   16.666666666666668
-450.0   60.0   16.666666666666668
-500.0   60.0   16.666666666666668
-450.0   60.0   33.333333333333336
-500.0   30.0   33.333333333333336
-500.0   60.0   33.333333333333336
-450.0   60.0   33.333333333333336
-500.0   60.0   16.666666666666668
-500.0   30.0   33.333333333333336
-450.0   60.0   33.333333333333336
-450.0   30.0   33.333333333333336
-450.0   30.0   16.666666666666668
-500.0   30.0   33.333333333333336
-450.0   60.0   33.333333333333336
-450.0   30.0   16.666666666666668
-500.0   60.0   16.666666666666668
-500.0   30.0   33.333333333333336
-450.0   30.0   33.333333333333336
-500.0   60.0   33.333333333333336
-500.0   30.0   50.0
-450.0   30.0   33.333333333333336
-450.0   60.0   33.333333333333336
-500.0   60.0   33.333333333333336
-450.0   60.0   50.0
-500.0   30.0   50.0
-500.0   60.0   50.0
-450.0   60.0   50.0
-500.0   60.0   33.333333333333336
-500.0   30.0   50.0
-450.0   60.0   50.0
-450.0   30.0   50.0
-450.0   30.0   33.333333333333336
-500.0   30.0   50.0
-450.0   60.0   50.0
-450.0   30.0   33.333333333333336
-500.0   60.0   33.333333333333336
-500.0   60.0   0.0
-450.0   60.0   0.0
-500.0   90.0   0.0
-500.0   60.0   16.666666666666668
-450.0   60.0   0.0
-450.0   90.0   0.0
-500.0   90.0   0.0
-450.0   90.0   16.666666666666668
-500.0   60.0   16.666666666666668
-500.0   90.0   16.666666666666668
-450.0   90.0   16.666666666666668
-500.0   90.0   0.0
-500.0   60.0   16.666666666666668
-450.0   90.0   16.666666666666668
-450.0   60.0   16.666666666666668
-450.0   60.0   0.0
-500.0   60.0   16.666666666666668
-450.0   90.0   16.666666666666668
-450.0   60.0   0.0
-500.0   90.0   0.0
-500.0   60.0   16.666666666666668
-450.0   60.0   16.666666666666668
-500.0   90.0   16.666666666666668
-500.0   60.0   33.333333333333336
-450.0   60.0   16.666666666666668
-450.0   90.0   16.666666666666668
-500.0   90.0   16.666666666666668
-450.0   90.0   33.333333333333336
-500.0   60.0   33.333333333333336
-500.0   90.0   33.333333333333336
-450.0   90.0   33.333333333333336
-500.0   90.0   16.666666666666668
-500.0   60.0   33.333333333333336
-450.0   90.0   33.333333333333336
-450.0   60.0   33.333333333333336
-450.0   60.0   16.666666666666668
-500.0   60.0   33.333333333333336
-450.0   90.0   33.333333333333336
-450.0   60.0   16.666666666666668
-500.0   90.0   16.666666666666668
-500.0   60.0   33.333333333333336
-450.0   60.0   33.333333333333336
-500.0   90.0   33.333333333333336
-500.0   60.0   50.0
-450.0   60.0   33.333333333333336
-450.0   90.0   33.333333333333336
-500.0   90.0   33.333333333333336
-450.0   90.0   50.0
-500.0   60.0   50.0
-500.0   90.0   50.0
-450.0   90.0   50.0
-500.0   90.0   33.333333333333336
-500.0   60.0   50.0
-450.0   90.0   50.0
-450.0   60.0   50.0
-450.0   60.0   33.333333333333336
-500.0   60.0   50.0
-450.0   90.0   50.0
-450.0   60.0   33.333333333333336
-500.0   90.0   33.333333333333336
-500.0   90.0   0.0
-450.0   90.0   0.0
-500.0   120.0   0.0
-500.0   90.0   16.666666666666668
-450.0   90.0   0.0
-450.0   120.0   0.0
-500.0   120.0   0.0
-450.0   120.0   16.666666666666668
-500.0   90.0   16.666666666666668
-500.0   120.0   16.666666666666668
-450.0   120.0   16.666666666666668
-500.0   120.0   0.0
-500.0   90.0   16.666666666666668
-450.0   120.0   16.666666666666668
-450.0   90.0   16.666666666666668
-450.0   90.0   0.0
-500.0   90.0   16.666666666666668
-450.0   120.0   16.666666666666668
-450.0   90.0   0.0
-500.0   120.0   0.0
-500.0   90.0   16.666666666666668
-450.0   90.0   16.666666666666668
-500.0   120.0   16.666666666666668
-500.0   90.0   33.333333333333336
-450.0   90.0   16.666666666666668
-450.0   120.0   16.666666666666668
-500.0   120.0   16.666666666666668
-450.0   120.0   33.333333333333336
-500.0   90.0   33.333333333333336
-500.0   120.0   33.333333333333336
-450.0   120.0   33.333333333333336
-500.0   120.0   16.666666666666668
-500.0   90.0   33.333333333333336
-450.0   120.0   33.333333333333336
-450.0   90.0   33.333333333333336
-450.0   90.0   16.666666666666668
-500.0   90.0   33.333333333333336
-450.0   120.0   33.333333333333336
-450.0   90.0   16.666666666666668
-500.0   120.0   16.666666666666668
-500.0   90.0   33.333333333333336
-450.0   90.0   33.333333333333336
-500.0   120.0   33.333333333333336
-500.0   90.0   50.0
-450.0   90.0   33.333333333333336
-450.0   120.0   33.333333333333336
-500.0   120.0   33.333333333333336
-450.0   120.0   50.0
-500.0   90.0   50.0
-500.0   120.0   50.0
-450.0   120.0   50.0
-500.0   120.0   33.333333333333336
-500.0   90.0   50.0
-450.0   120.0   50.0
-450.0   90.0   50.0
-450.0   90.0   33.333333333333336
-500.0   90.0   50.0
-450.0   120.0   50.0
-450.0   90.0   33.333333333333336
-500.0   120.0   33.333333333333336
-500.0   120.0   0.0
-450.0   120.0   0.0
-500.0   150.0   0.0
-500.0   120.0   16.666666666666668
-450.0   120.0   0.0
-450.0   150.0   0.0
-500.0   150.0   0.0
-450.0   150.0   16.666666666666668
-500.0   120.0   16.666666666666668
-500.0   150.0   16.666666666666668
-450.0   150.0   16.666666666666668
-500.0   150.0   0.0
-500.0   120.0   16.666666666666668
-450.0   150.0   16.666666666666668
-450.0   120.0   16.666666666666668
-450.0   120.0   0.0
-500.0   120.0   16.666666666666668
-450.0   150.0   16.666666666666668
-450.0   120.0   0.0
-500.0   150.0   0.0
-500.0   120.0   16.666666666666668
-450.0   120.0   16.666666666666668
-500.0   150.0   16.666666666666668
-500.0   120.0   33.333333333333336
-450.0   120.0   16.666666666666668
-450.0   150.0   16.666666666666668
-500.0   150.0   16.666666666666668
-450.0   150.0   33.333333333333336
-500.0   120.0   33.333333333333336
-500.0   150.0   33.333333333333336
-450.0   150.0   33.333333333333336
-500.0   150.0   16.666666666666668
-500.0   120.0   33.333333333333336
-450.0   150.0   33.333333333333336
-450.0   120.0   33.333333333333336
-450.0   120.0   16.666666666666668
-500.0   120.0   33.333333333333336
-450.0   150.0   33.333333333333336
-450.0   120.0   16.666666666666668
-500.0   150.0   16.666666666666668
-500.0   120.0   33.333333333333336
-450.0   120.0   33.333333333333336
-500.0   150.0   33.333333333333336
-500.0   120.0   50.0
-450.0   120.0   33.333333333333336
-450.0   150.0   33.333333333333336
-500.0   150.0   33.333333333333336
-450.0   150.0   50.0
-500.0   120.0   50.0
-500.0   150.0   50.0
-450.0   150.0   50.0
-500.0   150.0   33.333333333333336
-500.0   120.0   50.0
-450.0   150.0   50.0
-450.0   120.0   50.0
-450.0   120.0   33.333333333333336
-500.0   120.0   50.0
-450.0   150.0   50.0
-450.0   120.0   33.333333333333336
-500.0   150.0   33.333333333333336
-450.0   0.0   0.0
-400.0   0.0   0.0
-450.0   30.0   0.0
-450.0   0.0   16.666666666666668
-400.0   0.0   0.0
-400.0   30.0   0.0
-450.0   30.0   0.0
-400.0   30.0   16.666666666666668
-450.0   0.0   16.666666666666668
-450.0   30.0   16.666666666666668
-400.0   30.0   16.666666666666668
-450.0   30.0   0.0
-450.0   0.0   16.666666666666668
-400.0   30.0   16.666666666666668
-400.0   0.0   16.666666666666668
-400.0   0.0   0.0
-450.0   0.0   16.666666666666668
-400.0   30.0   16.666666666666668
-400.0   0.0   0.0
-450.0   30.0   0.0
-450.0   0.0   16.666666666666668
-400.0   0.0   16.666666666666668
-450.0   30.0   16.666666666666668
[...]
          <PointData>  
             <DataArray type="Float64" NumberOfComponents="3" Name="Strains" format="ascii">   
-6.30803281191236e-05   0.0   -4.148688028665039e-05
-6.30803281191236e-05   0.0   -4.148688028665039e-05
-6.30803281191236e-05   0.0   -4.148688028665039e-05
-6.30803281191236e-05   0.0   -4.148688028665039e-05
-4.013061422964569e-05   6.976526895806169e-06   9.485589999630635e-07
-4.013061422964569e-05   6.976526895806169e-06   9.485589999630635e-07
-4.013061422964569e-05   6.976526895806169e-06   9.485589999630635e-07
-4.013061422964569e-05   6.976526895806169e-06   9.485589999630635e-07
-3.933111155235514e-05   0.0   -3.916690832647918e-05
-3.933111155235514e-05   0.0   -3.916690832647918e-05
-3.933111155235514e-05   0.0   -3.916690832647918e-05
-3.933111155235514e-05   0.0   -3.916690832647918e-05
-6.60093158481474e-05   8.377704899691573e-06   2.7014256002646933e-07
-6.60093158481474e-05   8.377704899691573e-06   2.7014256002646933e-07
-6.60093158481474e-05   8.377704899691573e-06   2.7014256002646933e-07
-6.60093158481474e-05   8.377704899691573e-06   2.7014256002646933e-07
-5.120571983573928e-05   1.933309966809337e-06   -2.053588050092436e-05
-5.120571983573928e-05   1.933309966809337e-06   -2.053588050092436e-05
-5.120571983573928e-05   1.933309966809337e-06   -2.053588050092436e-05
-5.120571983573928e-05   1.933309966809337e-06   -2.053588050092436e-05
-6.60093158481475e-05   0.0   -4.4193531266294136e-05
-6.60093158481475e-05   0.0   -4.4193531266294136e-05
-6.60093158481475e-05   0.0   -4.4193531266294136e-05
-6.60093158481475e-05   0.0   -4.4193531266294136e-05
-3.933111155235514e-05   8.377704899691587e-06   5.2967654998414105e-06
-3.933111155235514e-05   8.377704899691587e-06   5.2967654998414105e-06
-3.933111155235514e-05   8.377704899691587e-06   5.2967654998414105e-06
-3.933111155235514e-05   8.377704899691587e-06   5.2967654998414105e-06
-3.9435707561972064e-05   0.0   -4.012387426149976e-05
-3.9435707561972064e-05   0.0   -4.012387426149976e-05
-3.9435707561972064e-05   0.0   -4.012387426149976e-05
-3.9435707561972064e-05   0.0   -4.012387426149976e-05
-6.80634116940876e-05   8.976950608332871e-06   2.202795593693238e-06
-6.80634116940876e-05   8.976950608332871e-06   2.202795593693238e-06
-6.80634116940876e-05   8.976950608332871e-06   2.202795593693238e-06
-6.80634116940876e-05   8.976950608332871e-06   2.202795593693238e-06
-5.27225117050597e-05   3.3913808373286413e-06   -2.001402919208402e-05
-5.27225117050597e-05   3.3913808373286413e-06   -2.001402919208402e-05
-5.27225117050597e-05   3.3913808373286413e-06   -2.001402919208402e-05
-5.27225117050597e-05   3.3913808373286413e-06   -2.001402919208402e-05
-6.806341169408772e-05   0.0   -4.55100446264995e-05
-6.806341169408772e-05   0.0   -4.55100446264995e-05
-6.806341169408772e-05   0.0   -4.55100446264995e-05
-6.806341169408772e-05   0.0   -4.55100446264995e-05
-3.9435707561972064e-05   8.976950608332899e-06   7.58896595869298e-06
-3.9435707561972064e-05   8.976950608332899e-06   7.58896595869298e-06
-3.9435707561972064e-05   8.976950608332899e-06   7.58896595869298e-06
-3.9435707561972064e-05   8.976950608332899e-06   7.58896595869298e-06
-3.9407849596834885e-05   0.0   -4.037077367689523e-05
-3.9407849596834885e-05   0.0   -4.037077367689523e-05
-3.9407849596834885e-05   0.0   -4.037077367689523e-05
-3.9407849596834885e-05   0.0   -4.037077367689523e-05
-7.24947765933053e-05   1.0231278383703802e-05   8.63533762033337e-06
-7.24947765933053e-05   1.0231278383703802e-05   8.63533762033337e-06
-7.24947765933053e-05   1.0231278383703802e-05   8.63533762033337e-06
-7.24947765933053e-05   1.0231278383703802e-05   8.63533762033337e-06
-5.3735630645461206e-05   4.282725791336893e-06   -1.906077407065329e-05
-5.3735630645461206e-05   4.282725791336893e-06   -1.906077407065329e-05
-5.3735630645461206e-05   4.282725791336893e-06   -1.906077407065329e-05
-5.3735630645461206e-05   4.282725791336893e-06   -1.906077407065329e-05
-4.013061422964576e-05   0.0   -3.7300964149166685e-05
-4.013061422964576e-05   0.0   -3.7300964149166685e-05
-4.013061422964576e-05   0.0   -3.7300964149166685e-05
-4.013061422964576e-05   0.0   -3.7300964149166685e-05
-1.8283012766765974e-05   2.5564845813159855e-06   6.455957044225253e-07
-1.8283012766765974e-05   2.5564845813159855e-06   6.455957044225253e-07
-1.8283012766765974e-05   2.5564845813159855e-06   6.455957044225253e-07
-1.8283012766765974e-05   2.5564845813159855e-06   6.455957044225253e-07
-1.757817874441453e-05   0.0   -3.698083739319481e-05
-1.757817874441453e-05   0.0   -3.698083739319481e-05
-1.757817874441453e-05   0.0   -3.698083739319481e-05
-1.757817874441453e-05   0.0   -3.698083739319481e-05
-3.933111155235514e-05   3.6434515554739535e-06   -2.9120203132448354e-06
-3.933111155235514e-05   3.6434515554739535e-06   -2.9120203132448354e-06
-3.933111155235514e-05   3.6434515554739535e-06   -2.9120203132448354e-06
-3.933111155235514e-05   3.6434515554739535e-06   -2.9120203132448354e-06
-2.8854396487030096e-05   2.667722966432292e-07   -1.8347204533488012e-05
-2.8854396487030096e-05   2.667722966432292e-07   -1.8347204533488012e-05
-2.8854396487030096e-05   2.667722966432292e-07   -1.8347204533488012e-05
-2.8854396487030096e-05   2.667722966432292e-07   -1.8347204533488012e-05
-3.933111155235511e-05   0.0   -3.916690832647915e-05
-3.933111155235511e-05   0.0   -3.916690832647915e-05
-3.933111155235511e-05   0.0   -3.916690832647915e-05
-3.933111155235511e-05   0.0   -3.916690832647915e-05
-1.757817874441453e-05   3.6434515554739535e-06   -7.259493799604606e-07
-1.757817874441453e-05   3.6434515554739535e-06   -7.259493799604606e-07
-1.757817874441453e-05   3.6434515554739535e-06   -7.259493799604606e-07
-1.757817874441453e-05   3.6434515554739535e-06   -7.259493799604606e-07
-1.7179736883791944e-05   0.0   -3.744373871674436e-05
-1.7179736883791944e-05   0.0   -3.744373871674436e-05
-1.7179736883791944e-05   0.0   -3.744373871674436e-05
-1.7179736883791944e-05   0.0   -3.744373871674436e-05
-3.9435707561972064e-05   4.466892574592343e-06   -3.0305897978662297e-06
-3.9435707561972064e-05   4.466892574592343e-06   -3.0305897978662297e-06
-3.9435707561972064e-05   4.466892574592343e-06   -3.0305897978662297e-06
-3.9435707561972064e-05   4.466892574592343e-06   -3.0305897978662297e-06
-2.8255424218073487e-05   1.4359746747790193e-06   -1.984584463114237e-05
-2.8255424218073487e-05   1.4359746747790193e-06   -1.984584463114237e-05
-2.8255424218073487e-05   1.4359746747790193e-06   -1.984584463114237e-05
-2.8255424218073487e-05   1.4359746747790193e-06   -1.984584463114237e-05
-3.9435707561972064e-05   0.0   -4.012387426149976e-05
-3.9435707561972064e-05   0.0   -4.012387426149976e-05
-3.9435707561972064e-05   0.0   -4.012387426149976e-05
-3.9435707561972064e-05   0.0   -4.012387426149976e-05
-1.7179736883791944e-05   4.466892574592343e-06   -3.5045425311082943e-07
-1.7179736883791944e-05   4.466892574592343e-06   -3.5045425311082943e-07
-1.7179736883791944e-05   4.466892574592343e-06   -3.5045425311082943e-07
-1.7179736883791944e-05   4.466892574592343e-06   -3.5045425311082943e-07
-1.681587955809887e-05   0.0   -3.725122304628996e-05
-1.681587955809887e-05   0.0   -3.725122304628996e-05
-1.681587955809887e-05   0.0   -3.725122304628996e-05
-1.681587955809887e-05   0.0   -3.725122304628996e-05
-3.940784959683478e-05   5.199251051008706e-06   -2.717490279001853e-06
-3.940784959683478e-05   5.199251051008706e-06   -2.717490279001853e-06
-3.940784959683478e-05   5.199251051008706e-06   -2.717490279001853e-06
-3.940784959683478e-05   5.199251051008706e-06   -2.717490279001853e-06
-2.812579356003546e-05   2.393876012674803e-06   -1.9837691984000533e-05
-2.812579356003546e-05   2.393876012674803e-06   -1.9837691984000533e-05
-2.812579356003546e-05   2.393876012674803e-06   -1.9837691984000533e-05
-2.812579356003546e-05   2.393876012674803e-06   -1.9837691984000533e-05
-1.828301276676601e-05   0.0   -3.57670734003771e-05
-1.828301276676601e-05   0.0   -3.57670734003771e-05
-1.828301276676601e-05   0.0   -3.57670734003771e-05
-1.828301276676601e-05   0.0   -3.57670734003771e-05
2.353461134121156e-06   -3.292025185593528e-07   -1.5704717433674015e-06
2.353461134121156e-06   -3.292025185593528e-07   -1.5704717433674015e-06
2.353461134121156e-06   -3.292025185593528e-07   -1.5704717433674015e-06
2.353461134121156e-06   -3.292025185593528e-07   -1.5704717433674015e-06
2.8062873733704994e-06   0.0   -3.659283592382567e-05
2.8062873733704994e-06   0.0   -3.659283592382567e-05
2.8062873733704994e-06   0.0   -3.659283592382567e-05
2.8062873733704994e-06   0.0   -3.659283592382567e-05
-1.75781787444145e-05   6.466691156150204e-07   -3.006727196886412e-06
-1.75781787444145e-05   6.466691156150204e-07   -3.006727196886412e-06
-1.75781787444145e-05   6.466691156150204e-07   -3.006727196886412e-06
-1.75781787444145e-05   6.466691156150204e-07   -3.006727196886412e-06
-7.738362696697723e-06   -6.881354362072533e-07   -1.860553787865427e-05
-7.738362696697723e-06   -6.881354362072533e-07   -1.860553787865427e-05
-7.738362696697723e-06   -6.881354362072533e-07   -1.860553787865427e-05
-7.738362696697723e-06   -6.881354362072533e-07   -1.860553787865427e-05
-1.757817874441453e-05   0.0   -3.698083739319481e-05
-1.757817874441453e-05   0.0   -3.698083739319481e-05
-1.757817874441453e-05   0.0   -3.698083739319481e-05
-1.757817874441453e-05   0.0   -3.698083739319481e-05
2.8062873733705045e-06   6.466691156150204e-07   -2.6187257275173998e-06
2.8062873733705045e-06   6.466691156150204e-07   -2.6187257275173998e-06
2.8062873733705045e-06   6.466691156150204e-07   -2.6187257275173998e-06
2.8062873733705045e-06   6.466691156150204e-07   -2.6187257275173998e-06
3.16452250627282e-06   0.0   -3.6539998659224025e-05
3.16452250627282e-06   0.0   -3.6539998659224025e-05
3.16452250627282e-06   0.0   -3.6539998659224025e-05
3.16452250627282e-06   0.0   -3.6539998659224025e-05
-1.7179736883791886e-05   1.506233429200437e-06   -3.536639733303073e-06
-1.7179736883791886e-05   1.506233429200437e-06   -3.536639733303073e-06
-1.7179736883791886e-05   1.506233429200437e-06   -3.536639733303073e-06
-1.7179736883791886e-05   1.506233429200437e-06   -3.536639733303073e-06
-7.20682811907084e-06   3.6736561164226776e-07   -1.9474833650636607e-05
-7.20682811907084e-06   3.6736561164226776e-07   -1.9474833650636607e-05
-7.20682811907084e-06   3.6736561164226776e-07   -1.9474833650636607e-05
-7.20682811907084e-06   3.6736561164226776e-07   -1.9474833650636607e-05
-1.7179736883791944e-05   0.0   -3.744373871674436e-05
-1.7179736883791944e-05   0.0   -3.744373871674436e-05
-1.7179736883791944e-05   0.0   -3.744373871674436e-05
-1.7179736883791944e-05   0.0   -3.744373871674436e-05
3.1645225062728256e-06   1.5062334292004437e-06   -2.632899675782814e-06
3.1645225062728256e-06   1.5062334292004437e-06   -2.632899675782814e-06
3.1645225062728256e-06   1.5062334292004437e-06   -2.632899675782814e-06
3.1645225062728256e-06   1.5062334292004437e-06   -2.632899675782814e-06
3.6444300714141607e-06   0.0   -3.57503518880404e-05
3.6444300714141607e-06   0.0   -3.57503518880404e-05
3.6444300714141607e-06   0.0   -3.57503518880404e-05
3.6444300714141607e-06   0.0   -3.57503518880404e-05
-1.6815879558098827e-05   2.5014519304158826e-06   -3.1507069971015745e-06
-1.6815879558098827e-05   2.5014519304158826e-06   -3.1507069971015745e-06
-1.6815879558098827e-05   2.5014519304158826e-06   -3.1507069971015745e-06
-1.6815879558098827e-05   2.5014519304158826e-06   -3.1507069971015745e-06
-6.767653406188876e-06   1.4111556905865798e-06   -1.924357283972061e-05
-6.767653406188876e-06   1.4111556905865798e-06   -1.924357283972061e-05
-6.767653406188876e-06   1.4111556905865798e-06   -1.924357283972061e-05
-6.767653406188876e-06   1.4111556905865798e-06   -1.924357283972061e-05
2.3534611341211603e-06   0.0   -3.596459491151271e-05
2.3534611341211603e-06   0.0   -3.596459491151271e-05
2.3534611341211603e-06   0.0   -3.596459491151271e-05
2.3534611341211603e-06   0.0   -3.596459491151271e-05
2.4759422192734926e-05   -2.904060653176632e-06   -3.6376287239571665e-07
2.4759422192734926e-05   -2.904060653176632e-06   -3.6376287239571665e-07
2.4759422192734926e-05   -2.904060653176632e-06   -3.6376287239571665e-07
2.4759422192734926e-05   -2.904060653176632e-06   -3.6376287239571665e-07
2.4811015237054575e-05   0.0   -3.790533273574481e-05
2.4811015237054575e-05   0.0   -3.790533273574481e-05
2.4811015237054575e-05   0.0   -3.790533273574481e-05
2.4811015237054575e-05   0.0   -3.790533273574481e-05
2.806287373370509e-06   -2.1874946865316853e-06   8.171051564763771e-08
2.806287373370509e-06   -2.1874946865316853e-06   8.171051564763771e-08
2.806287373370509e-06   -2.1874946865316853e-06   8.171051564763771e-08
2.806287373370509e-06   -2.1874946865316853e-06   8.171051564763771e-08
1.3582238185587867e-05   -1.6172815201934196e-06   -1.822033540451757e-05
1.3582238185587867e-05   -1.6172815201934196e-06   -1.822033540451757e-05
1.3582238185587867e-05   -1.6172815201934196e-06   -1.822033540451757e-05
1.3582238185587867e-05   -1.6172815201934196e-06   -1.822033540451757e-05
2.806287373370509e-06   0.0   -3.65928359238258e-05
2.806287373370509e-06   0.0   -3.65928359238258e-05
2.806287373370509e-06   0.0   -3.65928359238258e-05
2.806287373370509e-06   0.0   -3.65928359238258e-05
2.4811015237054575e-05   -2.1874946865316853e-06   -1.2307862962713728e-06
2.4811015237054575e-05   -2.1874946865316853e-06   -1.2307862962713728e-06
2.4811015237054575e-05   -2.1874946865316853e-06   -1.2307862962713728e-06
2.4811015237054575e-05   -2.1874946865316853e-06   -1.2307862962713728e-06
2.4711274031639415e-05   0.0   -3.736411310441922e-05
2.4711274031639415e-05   0.0   -3.736411310441922e-05
2.4711274031639415e-05   0.0   -3.736411310441922e-05
2.4711274031639415e-05   0.0   -3.736411310441922e-05
3.1645225062728256e-06   -1.3735240753252122e-06   -6.287461169464446e-07
3.1645225062728256e-06   -1.3735240753252122e-06   -6.287461169464446e-07
3.1645225062728256e-06   -1.3735240753252122e-06   -6.287461169464446e-07
3.1645225062728256e-06   -1.3735240753252122e-06   -6.287461169464446e-07
1.3758780702504962e-05   -6.427309838278519e-07   -1.8724318965565073e-05
1.3758780702504962e-05   -6.427309838278519e-07   -1.8724318965565073e-05
1.3758780702504962e-05   -6.427309838278519e-07   -1.8724318965565073e-05
1.3758780702504962e-05   -6.427309838278519e-07   -1.8724318965565073e-05
3.164522506272823e-06   0.0   -3.653999865922406e-05
3.164522506272823e-06   0.0   -3.653999865922406e-05
3.164522506272823e-06   0.0   -3.653999865922406e-05
3.164522506272823e-06   0.0   -3.653999865922406e-05
2.4711274031639415e-05   -1.3735240753252122e-06   -1.4528605621415722e-06
2.4711274031639415e-05   -1.3735240753252122e-06   -1.4528605621415722e-06
2.4711274031639415e-05   -1.3735240753252122e-06   -1.4528605621415722e-06
2.4711274031639415e-05   -1.3735240753252122e-06   -1.4528605621415722e-06
2.519612265091131e-05   0.0   -3.5918427898396685e-05
2.519612265091131e-05   0.0   -3.5918427898396685e-05
2.519612265091131e-05   0.0   -3.5918427898396685e-05
2.519612265091131e-05   0.0   -3.5918427898396685e-05
3.644430071414167e-06   -2.8012668392704494e-07   1.6913574445476676e-07
3.644430071414167e-06   -2.8012668392704494e-07   1.6913574445476676e-07
3.644430071414167e-06   -2.8012668392704494e-07   1.6913574445476676e-07
3.644430071414167e-06   -2.8012668392704494e-07   1.6913574445476676e-07
1.4180322578592057e-05   5.179756340228355e-07   -1.7869546491611625e-05
1.4180322578592057e-05   5.179756340228355e-07   -1.7869546491611625e-05
1.4180322578592057e-05   5.179756340228355e-07   -1.7869546491611625e-05
1.4180322578592057e-05   5.179756340228355e-07   -1.7869546491611625e-05
2.4759422192734926e-05   0.0   -3.770703130341869e-05
2.4759422192734926e-05   0.0   -3.770703130341869e-05
2.4759422192734926e-05   0.0   -3.770703130341869e-05
2.4759422192734926e-05   0.0   -3.770703130341869e-05
5.593793887633673e-05   -7.366870710387495e-06   9.837040743018789e-06
5.593793887633673e-05   -7.366870710387495e-06   9.837040743018789e-06
5.593793887633673e-05   -7.366870710387495e-06   9.837040743018789e-06
5.593793887633673e-05   -7.366870710387495e-06   9.837040743018789e-06
5.2544580286260196e-05   0.0   -4.166375566319906e-05
5.2544580286260196e-05   0.0   -4.166375566319906e-05
5.2544580286260196e-05   0.0   -4.166375566319906e-05
5.2544580286260196e-05   0.0   -4.166375566319906e-05
2.4811015237054575e-05   -6.264038212423751e-06   8.317275679597885e-06
2.4811015237054575e-05   -6.264038212423751e-06   8.317275679597885e-06
2.4811015237054575e-05   -6.264038212423751e-06   8.317275679597885e-06
2.4811015237054575e-05   -6.264038212423751e-06   8.317275679597885e-06
3.865200123949756e-05   -3.297270299816979e-06   -1.6531095072037802e-05
3.865200123949756e-05   -3.297270299816979e-06   -1.6531095072037802e-05
3.865200123949756e-05   -3.297270299816979e-06   -1.6531095072037802e-05
3.865200123949756e-05   -3.297270299816979e-06   -1.6531095072037802e-05
2.4811015237054552e-05   0.0   -3.790533273574478e-05
2.4811015237054552e-05   0.0   -3.790533273574478e-05
2.4811015237054552e-05   0.0   -3.790533273574478e-05
2.4811015237054552e-05   0.0   -3.790533273574478e-05
5.254458028626001e-05   -6.26403821242371e-06   4.558852752143617e-06
5.254458028626001e-05   -6.26403821242371e-06   4.558852752143617e-06
5.254458028626001e-05   -6.26403821242371e-06   4.558852752143617e-06
5.254458028626001e-05   -6.26403821242371e-06   4.558852752143617e-06
5.098271232647824e-05   0.0   -4.079761486280711e-05
5.098271232647824e-05   0.0   -4.079761486280711e-05
5.098271232647824e-05   0.0   -4.079761486280711e-05
5.098271232647824e-05   0.0   -4.079761486280711e-05
2.4711274031639415e-05   -5.722502930646494e-06   6.421617386978806e-06
2.4711274031639415e-05   -5.722502930646494e-06   6.421617386978806e-06
2.4711274031639415e-05   -5.722502930646494e-06   6.421617386978806e-06
2.4711274031639415e-05   -5.722502930646494e-06   6.421617386978806e-06
3.789686378176639e-05   -2.4102351058852528e-06   -1.7541726224756214e-05
3.789686378176639e-05   -2.4102351058852528e-06   -1.7541726224756214e-05
3.789686378176639e-05   -2.4102351058852528e-06   -1.7541726224756214e-05
3.789686378176639e-05   -2.4102351058852528e-06   -1.7541726224756214e-05
2.4711274031639415e-05   0.0   -3.736411310441922e-05
2.4711274031639415e-05   0.0   -3.736411310441922e-05
2.4711274031639415e-05   0.0   -3.736411310441922e-05
2.4711274031639415e-05   0.0   -3.736411310441922e-05
5.098271232647806e-05   -5.722502930646467e-06   2.9881156285909094e-06
5.098271232647806e-05   -5.722502930646467e-06   2.9881156285909094e-06
5.098271232647806e-05   -5.722502930646467e-06   2.9881156285909094e-06
5.098271232647806e-05   -5.722502930646467e-06   2.9881156285909094e-06
4.865297260384539e-05   0.0   -3.8584209723372155e-05
4.865297260384539e-05   0.0   -3.8584209723372155e-05
4.865297260384539e-05   0.0   -3.8584209723372155e-05
4.865297260384539e-05   0.0   -3.8584209723372155e-05
2.519612265091131e-05   -4.442969708292555e-06   3.1763220231602446e-06
2.519612265091131e-05   -4.442969708292555e-06   3.1763220231602446e-06
2.519612265091131e-05   -4.442969708292555e-06   3.1763220231602446e-06
2.519612265091131e-05   -4.442969708292555e-06   3.1763220231602446e-06
3.6682123317742443e-05   -1.0167471824608395e-06   -1.802274593705733e-05
3.6682123317742443e-05   -1.0167471824608395e-06   -1.802274593705733e-05
3.6682123317742443e-05   -1.0167471824608395e-06   -1.802274593705733e-05
3.6682123317742443e-05   -1.0167471824608395e-06   -1.802274593705733e-05
-5.466663259667065e-05   6.976526895806156e-06   -3.592633094148536e-05
-5.466663259667065e-05   6.976526895806156e-06   -3.592633094148536e-05
-5.466663259667065e-05   6.976526895806156e-06   -3.592633094148536e-05
-5.466663259667065e-05   6.976526895806156e-06   -3.592633094148536e-05