<?xml version="1.0"?> 
<VTKFile type="UnstructuredGrid"> 
   <UnstructuredGrid> 
      <Piece NumberOfPoints="6000"  NumberOfCells="1500">  
          <Points>  
             <DataArray type="Float64" NumberOfComponents="3" format="ascii">   
-500.0   0.0   0.0
-450.0   0.0   0.0
-500.0   30.0   0.0
-500.0   0.0   16.666666666666668
-450.0   0.0   0.0
-450.0   30.0   0.0
-500.0   30.0   0.0
-450.0   30.0   16.666666666666668
-500.0   0.0   16.666666666666668
-500.0   30.0   16.666666666666668
-450.0   30.0   16.666666666666668
-500.0   30.0   0.0
-500.0   0.0   16.666666666666668
-450.0   30.0   16.666666666666668
-450.0   0.0   16.666666666666668
-450.0   0.0   0.0
-500.0   0.0   16.666666666666668
-450.0   30.0   16.666666666666668
-450.0   0.0   0.0
-500.0   30.0   0.0
-500.0   0.0   16.666666666666668
-450.0   0.0   16.666666666666668
-500.0   30.0   16.666666666666668
-500.0   0.0   33.333333333333336
-450.0   0.0   16.666666666666668
-450.0   30.0   16.666666666666668
-500.0   30.0   16.666666666666668
-450.0   30.0   33.333333333333336
-500.0   0.0   33.333333333333336
-500.0   30.0   33.333333333333336
-450.0   30.0   33.333333333333336
-500.0   30.0   16.666666666666668
-500.0   0.0   33.333333333333336
-450.0   30.0   33.333333333333336
-450.0   0.0   33.333333333333336
-450.0   0.0   16.666666666666668
-500.0   0.0   33.333333333333336
-450.0   30.0   33.333333333333336
-450.0   0.0   16.666666666666668
-500.0   30.0   16.666666666666668
-500.0   0.0   33.333333333333336
-450.0   0.0   33.333333333333336
-500.0   30.0   33.333333333333336
-500.0   0.0   50.0
-450.0   0.0   33.333333333333336
-450.0   30.0   33.333333333333336
-500.0   30.0   33.333333333333336
-450.0   30.0   50.0
-500.0   0.0   50.0
-500.0   30.0   50.0
-450.0   30.0   50.0
-500.0   30.0   33.333333333333336
-500.0   0.0   50.0
-450.0   30.0   50.0
-450.0   0.0   50.0
-450.0   0.0   33.333333333333336
-500.0   0.0   50.0
-450.0   30.0   50.0
-450.0   0.0   33.333333333333336
-500.0   30.0   33.333333333333336
-500.0   30.0   0.0
-450.0   30.0   0.0
-500.0   60.0   0.0
-500.0   30.0   16.666666666666668
-450.0   30.0   0.0
-450.0   60.0   0.0
-500.0   60.0   0.0
-450.0   60.0   16.666666666666668
-500.0   30.0   16.666666666666668
-500.0   60.0   16.666666666666668
-450.0   60.0   16.666666666666668
-500.0   60.0   0.0
-500.0   30.0   16.666666666666668
-450.0   60.0   16.666666666666668
-450.0   30.0   16.666666666666668
-450.0   30.0   0.0
-500.0   30.0   16.666666666666668
-450.0   60.0   16.666666666666668
-450.0   30.0   0.0
-500.0   60.0   0.0
-500.0   30.0   16.666666666666668
-450.0   30.0   16.666666666666668
-500.0   60.0   16.666666666666668
-500.0   30.0   33.333333333333336
-450.0   30.0   16.666666666666668
-450.0   60.0   16.666666666666668
-500.0   60.0   16.666666666666668
-450.0   60.0   33.333333333333336
-500.0   30.0   33.333333333333336
-500.0   60.0   33.333333333333336
-450.0   60.0   33.333333333333336
-500.0   60.0   16.666666666666668
-500.0   30.0   33.333333333333336
-450.0   60.0   33.333333333333336
-450.0   30.0   33.333333333333336
-450.0   30.0   16.666666666666668
-500.0   30.0   33.333333333333336
-450.0   60.0   33.333333333333336
-450.0   30.0   16.666666666666668
-500.0   60.0   16.666666666666668
-500.0   30.0   33.333333333333336
-450.0   30.0   33.333333333333336
-500.0   60.0   33.333333333333336
-500.0   30.0   50.0
-450.0   30.0   33.333333333333336
-450.0   60.0   33.333333333333336
-500.0   60.0   33.333333333333336
-450.0   60.0   50.0
-500.0   30.0   50.0
-500.0   60.0   50.0
-450.0   60.0   50.0
-500.0   60.0   33.333333333333336
-500.0   30.0   50.0
-450.0   60.0   50.0
-450.0   30.0   50.0
-450.0   30.0   33.333333333333336
-500.0   30.0   50.0
-450.0   60.0   50.0
-450.0   30.0   33.333333333333336
-500.0   60.0   33.333333333333336
-500.0   60.0   0.0
-450.0   60.0   0.0
-500.0   90.0   0.0
-500.0   60.0   16.666666666666668
-450.0   60.0   0.0
-450.0   90.0   0.0
-500.0   90.0   0.0
-450.0   90.0   16.666666666666668
-500.0   60.0   16.666666666666668
-500.0   90.0   16.666666666666668
-450.0   90.0   16.666666666666668
-500.0   90.0   0.0
-500.0   60.0   16.666666666666668
-450.0   90.0   16.666666666666668
-450.0   60.0   16.666666666666668
-450.0   60.0   0.0
-500.0   60.0   16.666666666666668
-450.0   90.0   16.666666666666668
-450.0   60.0   0.0
-500.0   90.0   0.0
-500.0   60.0   16.666666666666668
-450.0   60.0   16.666666666666668
-500.0   90.0   16.666666666666668
-500.0   60.0   33.333333333333336
-450.0   60.0   16.666666666666668
-450.0   90.0   16.666666666666668
-500.0   90.0   16.666666666666668
-450.0   90.0   33.333333333333336
-500.0   60.0   33.333333333333336
-500.0   90.0   33.333333333333336
-450.0   90.0   33.333333333333336
-500.0   90.0   16.666666666666668
-500.0   60.0   33.333333333333336
-450.0   90.0   33.333333333333336
-450.0   60.0   33.333333333333336
-450.0   60.0   16.666666666666668
-500.0   60.0   33.333333333333336
-450.0   90.0   33.333333333333336
-450.0   60.0   16.666666666666668
-500.0   90.0   16.666666666666668
-500.0   60.0   33.333333333333336
-450.0   60.0   33.333333333333336
-500.0   90.0   33.333333333333336
-500.0   60.0   50.0
-450.0   60.0   33.333333333333336
-450.0   90.0   33.333333333333336
-500.0   90.0   33.333333333333336
-450.0   90.0   50.0
-500.0   60.0   50.0
-500.0   90.0   50.0
-450.0   90.0   50.0
-500.0   90.0   33.333333333333336
-500.0   60.0   50.0
-450.0   90.0   50.0
-450.0   60.0   50.0
-450.0   60.0   33.333333333333336
-500.0   60.0   50.0
-450.0   90.0   50.0
-450.0   60.0   33.333333333333336
-500.0   90.0   33.333333333333336
-500.0   90.0   0.0
-450.0   90.0   0.0
-500.0   120.0   0.0
-500.0   90.0   16.666666666666668
-450.0   90.0   0.0
-450.0   120.0   0.0
-500.0   120.0   0.0
-450.0   120.0   16.666666666666668
-500.0   90.0   16.666666666666668
-500.0   120.0   16.666666666666668
-450.0   120.0   16.666666666666668
-500.0   120.0   0.0
-500.0   90.0   16.666666666666668
-450.0   120.0   16.666666666666668
-450.0   90.0   16.666666666666668
-450.0   90.0   0.0
-500.0   90.0   16.666666666666668
-450.0   120.0   16.666666666666668
-450.0   90.0   0.0
-500.0   120.0   0.0
-500.0   90.0   16.666666666666668
-450.0   90.0   16.666666666666668
-500.0   120.0   16.666666666666668
-500.0   90.0   33.333333333333336
-450.0   90.0   16.666666666666668
-450.0   120.0   16.666666666666668
-500.0   120.0   16.666666666666668
-450.0   120.0   33.333333333333336
-500.0   90.0   33.333333333333336
-500.0   120.0   33.333333333333336
-450.0   120.0   33.333333333333336
-500.0   120.0   16.666666666666668
-500.0   90.0   33.333333333333336
-450.0   120.0   33.333333333333336
-450.0   90.0   33.333333333333336
-450.0   90.0   16.666666666666668
-500.0   90.0   33.333333333333336
-450.0   120.0   33.333333333333336
-450.0   90.0   16.666666666666668
-500.0   120.0   16.666666666666668
-500.0   90.0   33.333333333333336
-450.0   90.0   33.333333333333336
-500.0   120.0   33.333333333333336
-500.0   90.0   50.0
-450.0   90.0   33.333333333333336
-450.0   120.0   33.333333333333336
-500.0   120.0   33.333333333333336
-450.0   120.0   50.0
-500.0   90.0   50.0
-500.0   120.0   50.0
-450.0   120.0   50.0
-500.0   120.0   33.333333333333336
-500.0   90.0   50.0
-450.0   120.0   50.0
-450.0   90.0   50.0
-450.0   90.0   33.333333333333336
-500.0   90.0   50.0
-450.0   120.0   50.0
-450.0   90.0   33.333333333333336
-500.0   120.0   33.333333333333336
-500.0   120.0   0.0
-450.0   120.0   0.0
-500.0   150.0   0.0
-500.0   120.0   16.666666666666668
-450.0   120.0   0.0
-450.0   150.0   0.0
-500.0   150.0   0.0
-450.0   150.0   16.666666666666668
-500.0   120.0   16.666666666666668
-500.0   150.0   16.666666666666668
-450.0   150.0   16.666666666666668
-500.0   150.0   0.0
-500.0   120.0   16.666666666666668
-450.0   150.0   16.666666666666668
-450.0   120.0   16.666666666666668
-450.0   120.0   0.0
-500.0   120.0   16.666666666666668
-450.0   150.0   16.666666666666668
-450.0   120.0   0.0
-500.0   150.0   0.0
-500.0   120.0   16.666666666666668
-450.0   120.0   16.666666666666668
-500.0   150.0   16.666666666666668
-500.0   120.0   33.333333333333336
-450.0   120.0   16.666666666666668
-450.0   150.0   16.666666666666668
-500.0   150.0   16.666666666666668
-450.0   150.0   33.333333333333336
-500.0   120.0   33.333333333333336
-500.0   150.0   33.333333333333336
-450.0   150.0   33.333333333333336
-500.0   150.0   16.666666666666668
-500.0   120.0   33.333333333333336
-450.0   150.0   33.333333333333336
-450.0   120.0   33.333333333333336
-450.0   120.0   16.666666666666668
-500.0   120.0   33.333333333333336
-450.0   150.0   33.333333333333336
-450.0   120.0   16.666666666666668
-500.0   150.0   16.666666666666668
-500.0   120.0   33.333333333333336
-450.0   120.0   33.333333333333336
-500.0   150.0   33.333333333333336
-500.0   120.0   50.0
-450.0   120.0   33.333333333333336
-450.0   150.0   33.333333333333336
-500.0   150.0   33.333333333333336
-450.0   150.0   50.0
-500.0   120.0   50.0
-500.0   150.0   50.0
-450.0   150.0   50.0
-500.0   150.0   33.333333333333336
-500.0   120.0   50.0
-450.0   150.0   50.0
-450.0   120.0   50.0
-450.0   120.0   33.333333333333336
-500.0   120.0   50.0
-450.0   150.0   50.0
-450.0   120.0   33.333333333333336
-500.0   150.0   33.333333333333336
-450.0   0.0   0.0
-400.0   0.0   0.0
-450.0   30.0   0.0
-450.0   0.0   16.666666666666668
-400.0   0.0   0.0
-400.0   30.0   0.0
-450.0   30.0   0.0
-400.0   30.0   16.666666666666668
-450.0   0.0   16.666666666666668
-450.0   30.0   16.666666666666668
-400.0   30.0   16.666666666666668
-450.0   30.0   0.0
-450.0   0.0   16.666666666666668
-400.0   30.0   16.666666666666668
-400.0   0.0   16.666666666666668
-400.0   0.0   0.0
-450.0   0.0   16.666666666666668
-400.0   30.0   16.666666666666668
-400.0   0.0   0.0
-450.0   30.0   0.0
-450.0   0.0   16.666666666666668
-400.0   0.0   16.666666666666668
-450.0   30.0   16.666666666666668
[...]
          <PointData>  
             <DataArray type="Float64" NumberOfComponents="3" Name="Strains" format="ascii">   
-3.8045948465422384e-05   0.0   -2.5126140459846973e-05
-3.8045948465422384e-05   0.0   -2.5126140459846973e-05
-3.8045948465422384e-05   0.0   -2.5126140459846973e-05
-3.8045948465422384e-05   0.0   -2.5126140459846973e-05
-2.4193891593193037e-05   4.1939932969487805e-06   4.770169720378319e-07
-2.4193891593193037e-05   4.1939932969487805e-06   4.770169720378319e-07
-2.4193891593193037e-05   4.1939932969487805e-06   4.770169720378319e-07
-2.4193891593193037e-05   4.1939932969487805e-06   4.770169720378319e-07
-2.3704772803599683e-05   0.0   -2.373473355581565e-05
-2.3704772803599683e-05   0.0   -2.373473355581565e-05
-2.3704772803599683e-05   0.0   -2.373473355581565e-05
-2.3704772803599683e-05   0.0   -2.373473355581565e-05
-3.9803725816603195e-05   5.042914426638851e-06   7.110614320699621e-08
-3.9803725816603195e-05   5.042914426638851e-06   7.110614320699621e-08
-3.9803725816603195e-05   5.042914426638851e-06   7.110614320699621e-08
-3.9803725816603195e-05   5.042914426638851e-06   7.110614320699621e-08
-3.087536063451098e-05   1.159505753359433e-06   -1.2479457289645698e-05
-3.087536063451098e-05   1.159505753359433e-06   -1.2479457289645698e-05
-3.087536063451098e-05   1.159505753359433e-06   -1.2479457289645698e-05
-3.087536063451098e-05   1.159505753359433e-06   -1.2479457289645698e-05
-3.980372581660326e-05   0.0   -2.6760482211798965e-05
-3.980372581660326e-05   0.0   -2.6760482211798965e-05
-3.980372581660326e-05   0.0   -2.6760482211798965e-05
-3.980372581660326e-05   0.0   -2.6760482211798965e-05
-2.3704772803599683e-05   5.042914426638858e-06   3.0968547991903054e-06
-2.3704772803599683e-05   5.042914426638858e-06   3.0968547991903054e-06
-2.3704772803599683e-05   5.042914426638858e-06   3.0968547991903054e-06
-2.3704772803599683e-05   5.042914426638858e-06   3.0968547991903054e-06
-2.3760117061588382e-05   0.0   -2.431257908917892e-05
-2.3760117061588382e-05   0.0   -2.431257908917892e-05
-2.3760117061588382e-05   0.0   -2.431257908917892e-05
-2.3760117061588382e-05   0.0   -2.431257908917892e-05
-4.1032912810294436e-05   5.4054215477786785e-06   1.2321608966640656e-06
-4.1032912810294436e-05   5.4054215477786785e-06   1.2321608966640656e-06
-4.1032912810294436e-05   5.4054215477786785e-06   1.2321608966640656e-06
-4.1032912810294436e-05   5.4054215477786785e-06   1.2321608966640656e-06
-3.1781921439095767e-05   2.0399192688500354e-06   -1.2166856687976511e-05
-3.1781921439095767e-05   2.0399192688500354e-06   -1.2166856687976511e-05
-3.1781921439095767e-05   2.0399192688500354e-06   -1.2166856687976511e-05
-3.1781921439095767e-05   2.0399192688500354e-06   -1.2166856687976511e-05
-4.1032912810294503e-05   0.0   -2.7555832017846133e-05
-4.1032912810294503e-05   0.0   -2.7555832017846133e-05
-4.1032912810294503e-05   0.0   -2.7555832017846133e-05
-4.1032912810294503e-05   0.0   -2.7555832017846133e-05
-2.3760117061588382e-05   5.405421547778685e-06   4.4754138253312755e-06
-2.3760117061588382e-05   5.405421547778685e-06   4.4754138253312755e-06
-2.3760117061588382e-05   5.405421547778685e-06   4.4754138253312755e-06
-2.3760117061588382e-05   5.405421547778685e-06   4.4754138253312755e-06
-2.3734656170005518e-05   0.0   -2.446287694090011e-05
-2.3734656170005518e-05   0.0   -2.446287694090011e-05
-2.3734656170005518e-05   0.0   -2.446287694090011e-05
-2.3734656170005518e-05   0.0   -2.446287694090011e-05
-4.3692340060063856e-05   6.166310537511214e-06   5.100143220023828e-06
-4.3692340060063856e-05   6.166310537511214e-06   5.100143220023828e-06
-4.3692340060063856e-05   6.166310537511214e-06   5.100143220023828e-06
-4.3692340060063856e-05   6.166310537511214e-06   5.100143220023828e-06
-3.2383784490149956e-05   2.5774625641216827e-06   -1.1594140612465598e-05
-3.2383784490149956e-05   2.5774625641216827e-06   -1.1594140612465598e-05
-3.2383784490149956e-05   2.5774625641216827e-06   -1.1594140612465598e-05
-3.2383784490149956e-05   2.5774625641216827e-06   -1.1594140612465598e-05
-2.4193891593193078e-05   0.0   -2.26097444816777e-05
-2.4193891593193078e-05   0.0   -2.26097444816777e-05
-2.4193891593193078e-05   0.0   -2.26097444816777e-05
-2.4193891593193078e-05   0.0   -2.26097444816777e-05
-1.1031336526616271e-05   1.534184743844391e-06   2.48358142256928e-07
-1.1031336526616271e-05   1.534184743844391e-06   2.48358142256928e-07
-1.1031336526616271e-05   1.534184743844391e-06   2.48358142256928e-07
-1.1031336526616271e-05   1.534184743844391e-06   2.48358142256928e-07
-1.0598567858864116e-05   0.0   -2.2420106294876454e-05
-1.0598567858864116e-05   0.0   -2.2420106294876454e-05
-1.0598567858864116e-05   0.0   -2.2420106294876454e-05
-1.0598567858864116e-05   0.0   -2.2420106294876454e-05
-2.3704772803599683e-05   2.1910454348986614e-06   -1.891058647923038e-06
-2.3704772803599683e-05   2.1910454348986614e-06   -1.891058647923038e-06
-2.3704772803599683e-05   2.1910454348986614e-06   -1.891058647923038e-06
-2.3704772803599683e-05   2.1910454348986614e-06   -1.891058647923038e-06
-1.7396229726028565e-05   1.580318223343735e-07   -1.1185488943002914e-05
-1.7396229726028565e-05   1.580318223343735e-07   -1.1185488943002914e-05
-1.7396229726028565e-05   1.580318223343735e-07   -1.1185488943002914e-05
-1.7396229726028565e-05   1.580318223343735e-07   -1.1185488943002914e-05
-2.3704772803599663e-05   0.0   -2.373473355581563e-05
-2.3704772803599663e-05   0.0   -2.373473355581563e-05
-2.3704772803599663e-05   0.0   -2.373473355581563e-05
-2.3704772803599663e-05   0.0   -2.373473355581563e-05
-1.0598567858864116e-05   2.1910454348986614e-06   -5.764313869838426e-07
-1.0598567858864116e-05   2.1910454348986614e-06   -5.764313869838426e-07
-1.0598567858864116e-05   2.1910454348986614e-06   -5.764313869838426e-07
-1.0598567858864116e-05   2.1910454348986614e-06   -5.764313869838426e-07
-1.0350807716189168e-05   0.0   -2.2699159367695666e-05
-1.0350807716189168e-05   0.0   -2.2699159367695666e-05
-1.0350807716189168e-05   0.0   -2.2699159367695666e-05
-1.0350807716189168e-05   0.0   -2.2699159367695666e-05
-2.3760117061588382e-05   2.689032869138754e-06   -1.96373018018023e-06
-2.3760117061588382e-05   2.689032869138754e-06   -1.96373018018023e-06
-2.3760117061588382e-05   2.689032869138754e-06   -1.96373018018023e-06
-2.3760117061588382e-05   2.689032869138754e-06   -1.96373018018023e-06
-1.7027790259894393e-05   8.629784900999869e-07   -1.2088642222246854e-05
-1.7027790259894393e-05   8.629784900999869e-07   -1.2088642222246854e-05
-1.7027790259894393e-05   8.629784900999869e-07   -1.2088642222246854e-05
-1.7027790259894393e-05   8.629784900999869e-07   -1.2088642222246854e-05
-2.3760117061588382e-05   0.0   -2.431257908917892e-05
-2.3760117061588382e-05   0.0   -2.431257908917892e-05
-2.3760117061588382e-05   0.0   -2.431257908917892e-05
-2.3760117061588382e-05   0.0   -2.431257908917892e-05
-1.0350807716189168e-05   2.689032869138754e-06   -3.503104586969805e-07
-1.0350807716189168e-05   2.689032869138754e-06   -3.503104586969805e-07
-1.0350807716189168e-05   2.689032869138754e-06   -3.503104586969805e-07
-1.0350807716189168e-05   2.689032869138754e-06   -3.503104586969805e-07
-1.0123301742570754e-05   0.0   -2.258383706784335e-05
-1.0123301742570754e-05   0.0   -2.258383706784335e-05
-1.0123301742570754e-05   0.0   -2.258383706784335e-05
-1.0123301742570754e-05   0.0   -2.258383706784335e-05
-2.3734656170005453e-05   3.1317331217612228e-06   -1.7772862285088308e-06
-2.3734656170005453e-05   3.1317331217612228e-06   -1.7772862285088308e-06
-2.3734656170005453e-05   3.1317331217612228e-06   -1.7772862285088308e-06
-2.3734656170005453e-05   3.1317331217612228e-06   -1.7772862285088308e-06
-1.6941709402079563e-05   1.4406183511129582e-06   -1.208419531266311e-05
-1.6941709402079563e-05   1.4406183511129582e-06   -1.208419531266311e-05
-1.6941709402079563e-05   1.4406183511129582e-06   -1.208419531266311e-05
-1.6941709402079563e-05   1.4406183511129582e-06   -1.208419531266311e-05
-1.1031336526616291e-05   0.0   -2.1689233635371065e-05
-1.1031336526616291e-05   0.0   -2.1689233635371065e-05
-1.1031336526616291e-05   0.0   -2.1689233635371065e-05
-1.1031336526616291e-05   0.0   -2.1689233635371065e-05
1.3949707477918414e-06   -1.9956753938010503e-07   -1.0984620349855553e-06
1.3949707477918414e-06   -1.9956753938010503e-07   -1.0984620349855553e-06
1.3949707477918414e-06   -1.9956753938010503e-07   -1.0984620349855553e-06
1.3949707477918414e-06   -1.9956753938010503e-07   -1.0984620349855553e-06
1.6765405963481994e-06   0.0   -2.2186247333193244e-05
1.6765405963481994e-06   0.0   -2.2186247333193244e-05
1.6765405963481994e-06   0.0   -2.2186247333193244e-05
1.6765405963481994e-06   0.0   -2.2186247333193244e-05
-1.0598567858864097e-05   3.897649361385457e-07   -1.961592202855917e-06
-1.0598567858864097e-05   3.897649361385457e-07   -1.961592202855917e-06
-1.0598567858864097e-05   3.897649361385457e-07   -1.961592202855917e-06
-1.0598567858864097e-05   3.897649361385457e-07   -1.961592202855917e-06
-4.6773979651340265e-06   -4.1417808151854573e-07   -1.1347842881811734e-05
-4.6773979651340265e-06   -4.1417808151854573e-07   -1.1347842881811734e-05
-4.6773979651340265e-06   -4.1417808151854573e-07   -1.1347842881811734e-05
-4.6773979651340265e-06   -4.1417808151854573e-07   -1.1347842881811734e-05
-1.0598567858864116e-05   0.0   -2.2420106294876454e-05
-1.0598567858864116e-05   0.0   -2.2420106294876454e-05
-1.0598567858864116e-05   0.0   -2.2420106294876454e-05
-1.0598567858864116e-05   0.0   -2.2420106294876454e-05
1.6765405963482024e-06   3.897649361385457e-07   -1.727733241172786e-06
1.6765405963482024e-06   3.897649361385457e-07   -1.727733241172786e-06
1.6765405963482024e-06   3.897649361385457e-07   -1.727733241172786e-06
1.6765405963482024e-06   3.897649361385457e-07   -1.727733241172786e-06
1.9002943516374994e-06   0.0   -2.2153622868981215e-05
1.9002943516374994e-06   0.0   -2.2153622868981215e-05
1.9002943516374994e-06   0.0   -2.2153622868981215e-05
1.9002943516374994e-06   0.0   -2.2153622868981215e-05
-1.0350807716189132e-05   9.092274978573522e-07   -2.2806559213178793e-06
-1.0350807716189132e-05   9.092274978573522e-07   -2.2806559213178793e-06
-1.0350807716189132e-05   9.092274978573522e-07   -2.2806559213178793e-06
-1.0350807716189132e-05   9.092274978573522e-07   -2.2806559213178793e-06
-4.349136753613299e-06   2.2206952157933225e-07   -1.1871146073177477e-05
-4.349136753613299e-06   2.2206952157933225e-07   -1.1871146073177477e-05
-4.349136753613299e-06   2.2206952157933225e-07   -1.1871146073177477e-05
-4.349136753613299e-06   2.2206952157933225e-07   -1.1871146073177477e-05
-1.0350807716189168e-05   0.0   -2.2699159367695666e-05
-1.0350807716189168e-05   0.0   -2.2699159367695666e-05
-1.0350807716189168e-05   0.0   -2.2699159367695666e-05
-1.0350807716189168e-05   0.0   -2.2699159367695666e-05
1.9002943516375028e-06   9.092274978573522e-07   -1.7351194226034733e-06
1.9002943516375028e-06   9.092274978573522e-07   -1.7351194226034733e-06
1.9002943516375028e-06   9.092274978573522e-07   -1.7351194226034733e-06
1.9002943516375028e-06   9.092274978573522e-07   -1.7351194226034733e-06
2.197536148056855e-06   0.0   -2.1677709060048912e-05
2.197536148056855e-06   0.0   -2.1677709060048912e-05
2.197536148056855e-06   0.0   -2.1677709060048912e-05
2.197536148056855e-06   0.0   -2.1677709060048912e-05
-1.0123301742570726e-05   1.5102133463240302e-06   -2.0491072501306652e-06
-1.0123301742570726e-05   1.5102133463240302e-06   -2.0491072501306652e-06
-1.0123301742570726e-05   1.5102133463240302e-06   -2.0491072501306652e-06
-1.0123301742570726e-05   1.5102133463240302e-06   -2.0491072501306652e-06
-4.076635784066148e-06   8.51208589705593e-07   -1.1731480993667257e-05
-4.076635784066148e-06   8.51208589705593e-07   -1.1731480993667257e-05
-4.076635784066148e-06   8.51208589705593e-07   -1.1731480993667257e-05
-4.076635784066148e-06   8.51208589705593e-07   -1.1731480993667257e-05
1.3949707477918437e-06   0.0   -2.180897415899913e-05
1.3949707477918437e-06   0.0   -2.180897415899913e-05
1.3949707477918437e-06   0.0   -2.180897415899913e-05
1.3949707477918437e-06   0.0   -2.180897415899913e-05
1.4893329481921555e-05   -1.7468960589475817e-06   -3.598472374848142e-07
1.4893329481921555e-05   -1.7468960589475817e-06   -3.598472374848142e-07
1.4893329481921555e-05   -1.7468960589475817e-06   -3.598472374848142e-07
1.4893329481921555e-05   -1.7468960589475817e-06   -3.598472374848142e-07
1.4934040206123366e-05   0.0   -2.297445824724878e-05
1.4934040206123366e-05   0.0   -2.297445824724878e-05
1.4934040206123366e-05   0.0   -2.297445824724878e-05
1.4934040206123366e-05   0.0   -2.297445824724878e-05
1.6765405963482053e-06   -1.3136848567590914e-06   -9.04146502347247e-08
1.6765405963482053e-06   -1.3136848567590914e-06   -9.04146502347247e-08
1.6765405963482053e-06   -1.3136848567590914e-06   -9.04146502347247e-08
1.6765405963482053e-06   -1.3136848567590914e-06   -9.04146502347247e-08
8.164505476957605e-06   -9.712367402080423e-07   -1.110915832118101e-05
8.164505476957605e-06   -9.712367402080423e-07   -1.110915832118101e-05
8.164505476957605e-06   -9.712367402080423e-07   -1.110915832118101e-05
8.164505476957605e-06   -9.712367402080423e-07   -1.110915832118101e-05
1.6765405963482053e-06   0.0   -2.218624733319332e-05
1.6765405963482053e-06   0.0   -2.218624733319332e-05
1.6765405963482053e-06   0.0   -2.218624733319332e-05
1.6765405963482053e-06   0.0   -2.218624733319332e-05
1.4934040206123366e-05   -1.3136848567590914e-06   -8.78625564290182e-07
1.4934040206123366e-05   -1.3136848567590914e-06   -8.78625564290182e-07
1.4934040206123366e-05   -1.3136848567590914e-06   -8.78625564290182e-07
1.4934040206123366e-05   -1.3136848567590914e-06   -8.78625564290182e-07
1.4882341193301752e-05   0.0   -2.264649358834949e-05
1.4882341193301752e-05   0.0   -2.264649358834949e-05
1.4882341193301752e-05   0.0   -2.264649358834949e-05
1.4882341193301752e-05   0.0   -2.264649358834949e-05
1.9002943516375028e-06   -8.214511989470581e-07   -5.168781328741761e-07
1.9002943516375028e-06   -8.214511989470581e-07   -5.168781328741761e-07
1.9002943516375028e-06   -8.214511989470581e-07   -5.168781328741761e-07
1.9002943516375028e-06   -8.214511989470581e-07   -5.168781328741761e-07
8.279440894824979e-06   -3.8353854596347305e-07   -1.1411536629976776e-05
8.279440894824979e-06   -3.8353854596347305e-07   -1.1411536629976776e-05
8.279440894824979e-06   -3.8353854596347305e-07   -1.1411536629976776e-05
8.279440894824979e-06   -3.8353854596347305e-07   -1.1411536629976776e-05
1.9002943516375011e-06   0.0   -2.2153622868981235e-05
1.9002943516375011e-06   0.0   -2.2153622868981235e-05
1.9002943516375011e-06   0.0   -2.2153622868981235e-05
1.9002943516375011e-06   0.0   -2.2153622868981235e-05
1.4882341193301752e-05   -8.214511989470581e-07   -1.0097488522424128e-06
1.4882341193301752e-05   -8.214511989470581e-07   -1.0097488522424128e-06
1.4882341193301752e-05   -8.214511989470581e-07   -1.0097488522424128e-06
1.4882341193301752e-05   -8.214511989470581e-07   -1.0097488522424128e-06
1.5182348856750158e-05   0.0   -2.177415681279549e-05
1.5182348856750158e-05   0.0   -2.177415681279549e-05
1.5182348856750158e-05   0.0   -2.177415681279549e-05
1.5182348856750158e-05   0.0   -2.177415681279549e-05
2.1975361480568588e-06   -1.607462545775675e-07   -3.635454556012547e-08
2.1975361480568588e-06   -1.607462545775675e-07   -3.635454556012547e-08
2.1975361480568588e-06   -1.607462545775675e-07   -3.635454556012547e-08
2.1975361480568588e-06   -1.607462545775675e-07   -3.635454556012547e-08
8.541321604193824e-06   3.1622171348813654e-07   -1.0895511086627809e-05
8.541321604193824e-06   3.1622171348813654e-07   -1.0895511086627809e-05
8.541321604193824e-06   3.1622171348813654e-07   -1.0895511086627809e-05
8.541321604193824e-06   3.1622171348813654e-07   -1.0895511086627809e-05
1.4893329481921555e-05   0.0   -2.285711179436768e-05
1.4893329481921555e-05   0.0   -2.285711179436768e-05
1.4893329481921555e-05   0.0   -2.285711179436768e-05
1.4893329481921555e-05   0.0   -2.285711179436768e-05
3.369904635580768e-05   -4.4379450855972635e-06   5.822982610751012e-06
3.369904635580768e-05   -4.4379450855972635e-06   5.822982610751012e-06
3.369904635580768e-05   -4.4379450855972635e-06   5.822982610751012e-06
3.369904635580768e-05   -4.4379450855972635e-06   5.822982610751012e-06
3.1667323812465584e-05   0.0   -2.523554041305361e-05
3.1667323812465584e-05   0.0   -2.523554041305361e-05
3.1667323812465584e-05   0.0   -2.523554041305361e-05
3.1667323812465584e-05   0.0   -2.523554041305361e-05
1.4934040206123366e-05   -3.7684702763413896e-06   4.9143477633215755e-06
1.4934040206123366e-05   -3.7684702763413896e-06   4.9143477633215755e-06
1.4934040206123366e-05   -3.7684702763413896e-06   4.9143477633215755e-06
1.4934040206123366e-05   -3.7684702763413896e-06   4.9143477633215755e-06
2.3280326647193568e-05   -1.9820238489049462e-06   -1.0067997494923946e-05
2.3280326647193568e-05   -1.9820238489049462e-06   -1.0067997494923946e-05
2.3280326647193568e-05   -1.9820238489049462e-06   -1.0067997494923946e-05
2.3280326647193568e-05   -1.9820238489049462e-06   -1.0067997494923946e-05
1.4934040206123354e-05   0.0   -2.2974458247248758e-05
1.4934040206123354e-05   0.0   -2.2974458247248758e-05
1.4934040206123354e-05   0.0   -2.2974458247248758e-05
1.4934040206123354e-05   0.0   -2.2974458247248758e-05
3.166732381246547e-05   -3.768470276341376e-06   2.6532655975167275e-06
3.166732381246547e-05   -3.768470276341376e-06   2.6532655975167275e-06
3.166732381246547e-05   -3.768470276341376e-06   2.6532655975167275e-06
3.166732381246547e-05   -3.768470276341376e-06   2.6532655975167275e-06
3.073595362254973e-05   0.0   -2.471101412605812e-05
3.073595362254973e-05   0.0   -2.471101412605812e-05
3.073595362254973e-05   0.0   -2.471101412605812e-05
3.073595362254973e-05   0.0   -2.471101412605812e-05
1.4882341193301752e-05   -3.440867562847714e-06   3.7761937937304687e-06
1.4882341193301752e-05   -3.440867562847714e-06   3.7761937937304687e-06
1.4882341193301752e-05   -3.440867562847714e-06   3.7761937937304687e-06
1.4882341193301752e-05   -3.440867562847714e-06   3.7761937937304687e-06
2.2834996914336535e-05   -1.4471298990077845e-06   -1.0674475006298124e-05
2.2834996914336535e-05   -1.4471298990077845e-06   -1.0674475006298124e-05
2.2834996914336535e-05   -1.4471298990077845e-06   -1.0674475006298124e-05
2.2834996914336535e-05   -1.4471298990077845e-06   -1.0674475006298124e-05
1.4882341193301752e-05   0.0   -2.264649358834949e-05
1.4882341193301752e-05   0.0   -2.264649358834949e-05
1.4882341193301752e-05   0.0   -2.264649358834949e-05
1.4882341193301752e-05   0.0   -2.264649358834949e-05
3.073595362254962e-05   -3.4408675628477006e-06   1.7116732560218395e-06
3.073595362254962e-05   -3.4408675628477006e-06   1.7116732560218395e-06
3.073595362254962e-05   -3.4408675628477006e-06   1.7116732560218395e-06
3.073595362254962e-05   -3.4408675628477006e-06   1.7116732560218395e-06
2.934083541868126e-05   0.0   -2.3373452197186656e-05
2.934083541868126e-05   0.0   -2.3373452197186656e-05
2.934083541868126e-05   0.0   -2.3373452197186656e-05
2.934083541868126e-05   0.0   -2.3373452197186656e-05
1.5182348856750158e-05   -2.6654923073186727e-06   1.823320790423094e-06
1.5182348856750158e-05   -2.6654923073186727e-06   1.823320790423094e-06
1.5182348856750158e-05   -2.6654923073186727e-06   1.823320790423094e-06
1.5182348856750158e-05   -2.6654923073186727e-06   1.823320790423094e-06
2.211158830599153e-05   -6.057988406976742e-07   -1.0961227704951788e-05
2.211158830599153e-05   -6.057988406976742e-07   -1.0961227704951788e-05
2.211158830599153e-05   -6.057988406976742e-07   -1.0961227704951788e-05
2.211158830599153e-05   -6.057988406976742e-07   -1.0961227704951788e-05
-3.289439692176012e-05   4.193993296948774e-06   -2.1687064399752994e-05