<?xml version="1.0"?> 
<VTKFile type="UnstructuredGrid"> 
   <UnstructuredGrid> 
      <Piece NumberOfPoints="6000"  NumberOfCells="1500">  
          <Points>  
             <DataArray type="Float64" NumberOfComponents="3" format="ascii">   
-500.0   0.0   0.0
-450.0   0.0   0.0
-500.0   30.0   0.0
-500.0   0.0   16.666666666666668
-450.0   0.0   0.0
-450.0   30.0   0.0
-500.0   30.0   0.0
-450.0   30.0   16.666666666666668
-500.0   0.0   16.666666666666668
-500.0   30.0   16.666666666666668
-450.0   30.0   16.666666666666668
-500.0   30.0   0.0
-500.0   0.0   16.666666666666668
-450.0   30.0   16.666666666666668
-450.0   0.0   16.666666666666668
-450.0   0.0   0.0
-500.0   0.0   16.666666666666668
-450.0   30.0   16.666666666666668
-450.0   0.0   0.0
-500.0   30.0   0.0
-500.0   0.0   16.666666666666668
-450.0   0.0   16.666666666666668
-500.0   30.0   16.666666666666668
-500.0   0.0   33.333333333333336
-450.0   0.0   16.666666666666668
-450.0   30.0   16.666666666666668
-500.0   30.0   16.666666666666668
-450.0   30.0   33.333333333333336
-500.0   0.0   33.333333333333336
-500.0   30.0   33.333333333333336
-450.0   30.0   33.333333333333336
-500.0   30.0   16.666666666666668
-500.0   0.0   33.333333333333336
-450.0   30.0   33.333333333333336
-450.0   0.0   33.333333333333336
-450.0   0.0   16.666666666666668
-500.0   0.0   33.333333333333336
-450.0   30.0   33.333333333333336
-450.0   0.0   16.666666666666668
-500.0   30.0   16.666666666666668
-500.0   0.0   33.333333333333336
-450.0   0.0   33.333333333333336
-500.0   30.0   33.333333333333336
-500.0   0.0   50.0
-450.0   0.0   33.333333333333336
-450.0   30.0   33.333333333333336
-500.0   30.0   33.333333333333336
-450.0   30.0   50.0
-500.0   0.0   50.0
-500.0   30.0   50.0
-450.0   30.0   50.0
-500.0   30.0   33.333333333333336
-500.0   0.0   50.0
-450.0   30.0   50.0
-450.0   0.0   50.0
-450.0   0.0   33.333333333333336
-500.0   0.0   50.0
-450.0   30.0   50.0
-450.0   0.0   33.333333333333336
-500.0   30.0   33.333333333333336
-500.0   30.0   0.0
-450.0   30.0   0.0
-500.0   60.0   0.0
-500.0   30.0   16.666666666666668
-450.0   30.0   0.0
-450.0   60.0   0.0
-500.0   60.0   0.0
-450.0   60.0   16.666666666666668
-500.0   30.0   16.666666666666668
-500.0   60.0   16.666666666666668
-450.0   60.0   16.666666666666668
-500.0   60.0   0.0
-500.0   30.0   16.666666666666668
-450.0   60.0   16.666666666666668
-450.0   30.0   16.666666666666668
-450.0   30.0   0.0
-500.0   30.0   16.666666666666668
-450.0   60.0   16.666666666666668
-450.0   30.0   0.0
-500.0   60.0   0.0
-500.0   30.0   16.666666666666668
-450.0   30.0   16.666666666666668
-500.0   60.0   16.666666666666668
-500.0   30.0   33.333333333333336
-450.0   30.0   16.666666666666668
-450.0   60.0   16.666666666666668
-500.0   60.0   16.666666666666668
-450.0   60.0   33.333333333333336
-500.0   30.0   33.333333333333336
-500.0   60.0   33.333333333333336
-450.0   60.0   33.333333333333336
-500.0   60.0   16.666666666666668
-500.0   30.0   33.333333333333336
-450.0   60.0   33.333333333333336
-450.0   30.0   33.333333333333336
-450.0   30.0   16.666666666666668
-500.0   30.0   33.333333333333336
-450.0   60.0   33.333333333333336
-450.0   30.0   16.666666666666668
-500.0   60.0   16.666666666666668
-500.0   30.0   33.333333333333336
-450.0   30.0   33.333333333333336
-500.0   60.0   33.333333333333336
-500.0   30.0   50.0
-450.0   30.0   33.333333333333336
-450.0   60.0   33.333333333333336
-500.0   60.0   33.333333333333336
-450.0   60.0   50.0
-500.0   30.0   50.0
-500.0   60.0   50.0
-450.0   60.0   50.0
-500.0   60.0   33.333333333333336
-500.0   30.0   50.0
-450.0   60.0   50.0
-450.0   30.0   50.0
-450.0   30.0   33.333333333333336
-500.0   30.0   50.0
-450.0   60.0   50.0
-450.0   30.0   33.333333333333336
-500.0   60.0   33.333333333333336
-500.0   60.0   0.0
-450.0   60.0   0.0
-500.0   90.0   0.0
-500.0   60.0   16.666666666666668
-450.0   60.0   0.0
-450.0   90.0   0.0
-500.0   90.0   0.0
-450.0   90.0   16.666666666666668
-500.0   60.0   16.666666666666668
-500.0   90.0   16.666666666666668
-450.0   90.0   16.666666666666668
-500.0   90.0   0.0
-500.0   60.0   16.666666666666668
-450.0   90.0   16.666666666666668
-450.0   60.0   16.666666666666668
-450.0   60.0   0.0
-500.0   60.0   16.666666666666668
-450.0   90.0   16.666666666666668
-450.0   60.0   0.0
-500.0   90.0   0.0
-500.0   60.0   16.666666666666668
-450.0   60.0   16.666666666666668
-500.0   90.0   16.666666666666668
-500.0   60.0   33.333333333333336
-450.0   60.0   16.666666666666668
-450.0   90.0   16.666666666666668
-500.0   90.0   16.666666666666668
-450.0   90.0   33.333333333333336
-500.0   60.0   33.333333333333336
-500.0   90.0   33.333333333333336
-450.0   90.0   33.333333333333336
-500.0   90.0   16.666666666666668
-500.0   60.0   33.333333333333336
-450.0   90.0   33.333333333333336
-450.0   60.0   33.333333333333336
-450.0   60.0   16.666666666666668
-500.0   60.0   33.333333333333336
-450.0   90.0   33.333333333333336
-450.0   60.0   16.666666666666668
-500.0   90.0   16.666666666666668
-500.0   60.0   33.333333333333336
-450.0   60.0   33.333333333333336
-500.0   90.0   33.333333333333336
-500.0   60.0   50.0
-450.0   60.0   33.333333333333336
-450.0   90.0   33.333333333333336
-500.0   90.0   33.333333333333336
-450.0   90.0   50.0
-500.0   60.0   50.0
-500.0   90.0   50.0
-450.0   90.0   50.0
-500.0   90.0   33.333333333333336
-500.0   60.0   50.0
-450.0   90.0   50.0
-450.0   60.0   50.0
-450.0   60.0   33.333333333333336
-500.0   60.0   50.0
-450.0   90.0   50.0
-450.0   60.0   33.333333333333336
-500.0   90.0   33.333333333333336
-500.0   90.0   0.0
-450.0   90.0   0.0
-500.0   120.0   0.0
-500.0   90.0   16.666666666666668
-450.0   90.0   0.0
-450.0   120.0   0.0
-500.0   120.0   0.0
-450.0   120.0   16.666666666666668
-500.0   90.0   16.666666666666668
-500.0   120.0   16.666666666666668
-450.0   120.0   16.666666666666668
-500.0   120.0   0.0
-500.0   90.0   16.666666666666668
-450.0   120.0   16.666666666666668
-450.0   90.0   16.666666666666668
-450.0   90.0   0.0
-500.0   90.0   16.666666666666668
-450.0   120.0   16.666666666666668
-450.0   90.0   0.0
-500.0   120.0   0.0
-500.0   90.0   16.666666666666668
-450.0   90.0   16.666666666666668
-500.0   120.0   16.666666666666668
-500.0   90.0   33.333333333333336
-450.0   90.0   16.666666666666668
-450.0   120.0   16.666666666666668
-500.0   120.0   16.666666666666668
-450.0   120.0   33.333333333333336
-500.0   90.0   33.333333333333336
-500.0   120.0   33.333333333333336
-450.0   120.0   33.333333333333336
-500.0   120.0   16.666666666666668
-500.0   90.0   33.333333333333336
-450.0   120.0   33.333333333333336
-450.0   90.0   33.333333333333336
-450.0   90.0   16.666666666666668
-500.0   90.0   33.333333333333336
-450.0   120.0   33.333333333333336
-450.0   90.0   16.666666666666668
-500.0   120.0   16.666666666666668
-500.0   90.0   33.333333333333336
-450.0   90.0   33.333333333333336
-500.0   120.0   33.333333333333336
-500.0   90.0   50.0
-450.0   90.0   33.333333333333336
-450.0   120.0   33.333333333333336
-500.0   120.0   33.333333333333336
-450.0   120.0   50.0
-500.0   90.0   50.0
-500.0   120.0   50.0
-450.0   120.0   50.0
-500.0   120.0   33.333333333333336
-500.0   90.0   50.0
-450.0   120.0   50.0
-450.0   90.0   50.0
-450.0   90.0   33.333333333333336
-500.0   90.0   50.0
-450.0   120.0   50.0
-450.0   90.0   33.333333333333336
-500.0   120.0   33.333333333333336
-500.0   120.0   0.0
-450.0   120.0   0.0
-500.0   150.0   0.0
-500.0   120.0   16.666666666666668
-450.0   120.0   0.0
-450.0   150.0   0.0
-500.0   150.0   0.0
-450.0   150.0   16.666666666666668
-500.0   120.0   16.666666666666668
-500.0   150.0   16.666666666666668
-450.0   150.0   16.666666666666668
-500.0   150.0   0.0
-500.0   120.0   16.666666666666668
-450.0   150.0   16.666666666666668
-450.0   120.0   16.666666666666668
-450.0   120.0   0.0
-500.0   120.0   16.666666666666668
-450.0   150.0   16.666666666666668
-450.0   120.0   0.0
-500.0   150.0   0.0
-500.0   120.0   16.666666666666668
-450.0   120.0   16.666666666666668
-500.0   150.0   16.666666666666668
-500.0   120.0   33.333333333333336
-450.0   120.0   16.666666666666668
-450.0   150.0   16.666666666666668
-500.0   150.0   16.666666666666668
-450.0   150.0   33.333333333333336
-500.0   120.0   33.333333333333336
-500.0   150.0   33.333333333333336
-450.0   150.0   33.333333333333336
-500.0   150.0   16.666666666666668
-500.0   120.0   33.333333333333336
-450.0   150.0   33.333333333333336
-450.0   120.0   33.333333333333336
-450.0   120.0   16.666666666666668
-500.0   120.0   33.333333333333336
-450.0   150.0   33.333333333333336
-450.0   120.0   16.666666666666668
-500.0   150.0   16.666666666666668
-500.0   120.0   33.333333333333336
-450.0   120.0   33.333333333333336
-500.0   150.0   33.333333333333336
-500.0   120.0   50.0
-450.0   120.0   33.333333333333336
-450.0   150.0   33.333333333333336
-500.0   150.0   33.333333333333336
-450.0   150.0   50.0
-500.0   120.0   50.0
-500.0   150.0   50.0
-450.0   150.0   50.0
-500.0   150.0   33.333333333333336
-500.0   120.0   50.0
-450.0   150.0   50.0
-450.0   120.0   50.0
-450.0   120.0   33.333333333333336
-500.0   120.0   50.0
-450.0   150.0   50.0
-450.0   120.0   33.333333333333336
-500.0   150.0   33.333333333333336
-450.0   0.0   0.0
-400.0   0.0   0.0
-450.0   30.0   0.0
-450.0   0.0   16.666666666666668
-400.0   0.0   0.0
-400.0   30.0   0.0
-450.0   30.0   0.0
-400.0   30.0   16.666666666666668
-450.0   0.0   16.666666666666668
-450.0   30.0   16.666666666666668
-400.0   30.0   16.666666666666668
-450.0   30.0   0.0
-450.0   0.0   16.666666666666668
-400.0   30.0   16.666666666666668
-400.0   0.0   16.666666666666668
-400.0   0.0   0.0
-450.0   0.0   16.666666666666668
-400.0   30.0   16.666666666666668
-400.0   0.0   0.0
-450.0   30.0   0.0
-450.0   0.0   16.666666666666668
-400.0   0.0   16.666666666666668
-450.0   30.0   16.666666666666668
[...]
          <PointData>  
             <DataArray type="Float64" NumberOfComponents="3" Name="Strains" format="ascii">   
-0.0001131490874265272   0.0   -7.42083599402576e-05
-0.0001131490874265272   0.0   -7.42083599402576e-05
-0.0001131490874265272   0.0   -7.42083599402576e-05
-0.0001131490874265272   0.0   -7.42083599402576e-05
-7.200405950255228e-05   1.2541594093521015e-05   1.8916430558130523e-06
-7.200405950255228e-05   1.2541594093521015e-05   1.8916430558130523e-06
-7.200405950255228e-05   1.2541594093521015e-05   1.8916430558130523e-06
-7.200405950255228e-05   1.2541594093521015e-05   1.8916430558130523e-06
-7.058378904986647e-05   0.0   -7.00312578678065e-05
-7.058378904986647e-05   0.0   -7.00312578678065e-05
-7.058378904986647e-05   0.0   -7.00312578678065e-05
-7.058378904986647e-05   0.0   -7.00312578678065e-05
-0.00011842049591123621   1.5047285845797072e-05   6.682153936651174e-07
-0.00011842049591123621   1.5047285845797072e-05   6.682153936651174e-07
-0.00011842049591123621   1.5047285845797072e-05   6.682153936651174e-07
-0.00011842049591123621   1.5047285845797072e-05   6.682153936651174e-07
-9.186643823819667e-05   3.4809183937092403e-06   -3.6648726923481355e-05
-9.186643823819667e-05   3.4809183937092403e-06   -3.6648726923481355e-05
-9.186643823819667e-05   3.4809183937092403e-06   -3.6648726923481355e-05
-9.186643823819667e-05   3.4809183937092403e-06   -3.6648726923481355e-05
-0.00011842049591123641   0.0   -7.905962937528476e-05
-0.00011842049591123641   0.0   -7.905962937528476e-05
-0.00011842049591123641   0.0   -7.905962937528476e-05
-0.00011842049591123641   0.0   -7.905962937528476e-05
-7.058378904986647e-05   1.5047285845797099e-05   9.69658690114339e-06
-7.058378904986647e-05   1.5047285845797099e-05   9.69658690114339e-06
-7.058378904986647e-05   1.5047285845797099e-05   9.69658690114339e-06
-7.058378904986647e-05   1.5047285845797099e-05   9.69658690114339e-06
-7.078688856273894e-05   0.0   -7.17464646061416e-05
-7.078688856273894e-05   0.0   -7.17464646061416e-05
-7.078688856273894e-05   0.0   -7.17464646061416e-05
-7.078688856273894e-05   0.0   -7.17464646061416e-05
-0.00012212440946167346   1.612000872944119e-05   4.144064987751542e-06
-0.00012212440946167346   1.612000872944119e-05   4.144064987751542e-06
-0.00012212440946167346   1.612000872944119e-05   4.144064987751542e-06
-0.00012212440946167346   1.612000872944119e-05   4.144064987751542e-06
-9.460369223698751e-05   6.094303974285961e-06   -3.5708374200298546e-05
-9.460369223698751e-05   6.094303974285961e-06   -3.5708374200298546e-05
-9.460369223698751e-05   6.094303974285961e-06   -3.5708374200298546e-05
-9.460369223698751e-05   6.094303974285961e-06   -3.5708374200298546e-05
-0.00012212440946167367   0.0   -8.141846984380633e-05
-0.00012212440946167367   0.0   -8.141846984380633e-05
-0.00012212440946167367   0.0   -8.141846984380633e-05
-0.00012212440946167367   0.0   -8.141846984380633e-05
-7.078688856273894e-05   1.6120008729441217e-05   1.3816070225416293e-05
-7.078688856273894e-05   1.6120008729441217e-05   1.3816070225416293e-05
-7.078688856273894e-05   1.6120008729441217e-05   1.3816070225416293e-05
-7.078688856273894e-05   1.6120008729441217e-05   1.3816070225416293e-05
-7.07542364504923e-05   0.0   -7.218656714888553e-05
-7.07542364504923e-05   0.0   -7.218656714888553e-05
-7.07542364504923e-05   0.0   -7.218656714888553e-05
-7.07542364504923e-05   0.0   -7.218656714888553e-05
-0.00013009964965978685   1.8361214076088788e-05   1.5705726420952443e-05
-0.00013009964965978685   1.8361214076088788e-05   1.5705726420952443e-05
-0.00013009964965978685   1.8361214076088788e-05   1.5705726420952443e-05
-0.00013009964965978685   1.8361214076088788e-05   1.5705726420952443e-05
-9.643932295608282e-05   7.693252245767326e-06   -3.399404098702802e-05
-9.643932295608282e-05   7.693252245767326e-06   -3.399404098702802e-05
-9.643932295608282e-05   7.693252245767326e-06   -3.399404098702802e-05
-9.643932295608282e-05   7.693252245767326e-06   -3.399404098702802e-05
-7.200405950255242e-05   0.0   -6.668340348414498e-05
-7.200405950255242e-05   0.0   -6.668340348414498e-05
-7.200405950255242e-05   0.0   -6.668340348414498e-05
-7.200405950255242e-05   0.0   -6.668340348414498e-05
-3.278636524706668e-05   4.601084256259202e-06   1.4400708287533846e-06
-3.278636524706668e-05   4.601084256259202e-06   1.4400708287533846e-06
-3.278636524706668e-05   4.601084256259202e-06   1.4400708287533846e-06
-3.278636524706668e-05   4.601084256259202e-06   1.4400708287533846e-06
-3.153740051551573e-05   0.0   -6.610229958983178e-05
-3.153740051551573e-05   0.0   -6.610229958983178e-05
-3.153740051551573e-05   0.0   -6.610229958983178e-05
-3.153740051551573e-05   0.0   -6.610229958983178e-05
-7.058378904986647e-05   6.548263796624524e-06   -4.95394364388862e-06
-7.058378904986647e-05   6.548263796624524e-06   -4.95394364388862e-06
-7.058378904986647e-05   6.548263796624524e-06   -4.95394364388862e-06
-7.058378904986647e-05   6.548263796624524e-06   -4.95394364388862e-06
-5.177073000903398e-05   4.842532452609949e-07   -3.267063571445773e-05
-5.177073000903398e-05   4.842532452609949e-07   -3.267063571445773e-05
-5.177073000903398e-05   4.842532452609949e-07   -3.267063571445773e-05
-5.177073000903398e-05   4.842532452609949e-07   -3.267063571445773e-05
-7.058378904986642e-05   0.0   -7.003125786780645e-05
-7.058378904986642e-05   0.0   -7.003125786780645e-05
-7.058378904986642e-05   0.0   -7.003125786780645e-05
-7.058378904986642e-05   0.0   -7.003125786780645e-05
-3.153740051551573e-05   6.548263796624524e-06   -1.0249853659139e-06
-3.153740051551573e-05   6.548263796624524e-06   -1.0249853659139e-06
-3.153740051551573e-05   6.548263796624524e-06   -1.0249853659139e-06
-3.153740051551573e-05   6.548263796624524e-06   -1.0249853659139e-06
-3.083759521899703e-05   0.0   -6.693289741484194e-05
-3.083759521899703e-05   0.0   -6.693289741484194e-05
-3.083759521899703e-05   0.0   -6.693289741484194e-05
-3.083759521899703e-05   0.0   -6.693289741484194e-05
-7.078688856273894e-05   8.022611985499426e-06   -5.1643090332384185e-06
-7.078688856273894e-05   8.022611985499426e-06   -5.1643090332384185e-06
-7.078688856273894e-05   8.022611985499426e-06   -5.1643090332384185e-06
-7.078688856273894e-05   8.022611985499426e-06   -5.1643090332384185e-06
-5.071069213443165e-05   2.5819670441371316e-06   -3.5360249448932905e-05
-5.071069213443165e-05   2.5819670441371316e-06   -3.5360249448932905e-05
-5.071069213443165e-05   2.5819670441371316e-06   -3.5360249448932905e-05
-5.071069213443165e-05   2.5819670441371316e-06   -3.5360249448932905e-05
-7.078688856273894e-05   0.0   -7.17464646061416e-05
-7.078688856273894e-05   0.0   -7.17464646061416e-05
-7.078688856273894e-05   0.0   -7.17464646061416e-05
-7.078688856273894e-05   0.0   -7.17464646061416e-05
-3.083759521899703e-05   8.022611985499426e-06   -3.507418419387712e-07
-3.083759521899703e-05   8.022611985499426e-06   -3.507418419387712e-07
-3.083759521899703e-05   8.022611985499426e-06   -3.507418419387712e-07
-3.083759521899703e-05   8.022611985499426e-06   -3.507418419387712e-07
-3.020103518915375e-05   0.0   -6.658599500318335e-05
-3.020103518915375e-05   0.0   -6.658599500318335e-05
-3.020103518915375e-05   0.0   -6.658599500318335e-05
-3.020103518915375e-05   0.0   -6.658599500318335e-05
-7.075423645049213e-05   9.334286909503523e-06   -4.597898379987911e-06
-7.075423645049213e-05   9.334286909503523e-06   -4.597898379987911e-06
-7.075423645049213e-05   9.334286909503523e-06   -4.597898379987911e-06
-7.075423645049213e-05   9.334286909503523e-06   -4.597898379987911e-06
-5.0493961875946323e-05   4.3003913357985e-06   -3.534468532667481e-05
-5.0493961875946323e-05   4.3003913357985e-06   -3.534468532667481e-05
-5.0493961875946323e-05   4.3003913357985e-06   -3.534468532667481e-05
-5.0493961875946323e-05   4.3003913357985e-06   -3.534468532667481e-05
-3.278636524706674e-05   0.0   -6.392275293038945e-05
-3.278636524706674e-05   0.0   -6.392275293038945e-05
-3.278636524706674e-05   0.0   -6.392275293038945e-05
-3.278636524706674e-05   0.0   -6.392275293038945e-05
4.2704419067784826e-06   -5.88472476917767e-07   -2.514491160131348e-06
4.2704419067784826e-06   -5.88472476917767e-07   -2.514491160131348e-06
4.2704419067784826e-06   -5.88472476917767e-07   -2.514491160131348e-06
4.2704419067784826e-06   -5.88472476917767e-07   -2.514491160131348e-06
5.065780927414694e-06   0.0   -6.540601310509079e-05
5.065780927414694e-06   0.0   -6.540601310509079e-05
5.065780927414694e-06   0.0   -6.540601310509079e-05
5.065780927414694e-06   0.0   -6.540601310509079e-05
-3.153740051551568e-05   1.160477474567963e-06   -5.0969971849477134e-06
-3.153740051551568e-05   1.160477474567963e-06   -5.0969971849477134e-06
-3.153740051551568e-05   1.160477474567963e-06   -5.0969971849477134e-06
-3.153740051551568e-05   1.160477474567963e-06   -5.0969971849477134e-06
-1.3860292159825967e-05   -1.2360501455846245e-06   -3.3120927872338894e-05
-1.3860292159825967e-05   -1.2360501455846245e-06   -3.3120927872338894e-05
-1.3860292159825967e-05   -1.2360501455846245e-06   -3.3120927872338894e-05
-1.3860292159825967e-05   -1.2360501455846245e-06   -3.3120927872338894e-05
-3.153740051551573e-05   0.0   -6.610229958983178e-05
-3.153740051551573e-05   0.0   -6.610229958983178e-05
-3.153740051551573e-05   0.0   -6.610229958983178e-05
-3.153740051551573e-05   0.0   -6.610229958983178e-05
5.065780927414702e-06   1.160477474567963e-06   -4.400710700206932e-06
5.065780927414702e-06   1.160477474567963e-06   -4.400710700206932e-06
5.065780927414702e-06   1.160477474567963e-06   -4.400710700206932e-06
5.065780927414702e-06   1.160477474567963e-06   -4.400710700206932e-06
5.692978815543925e-06   0.0   -6.531275023970989e-05
5.692978815543925e-06   0.0   -6.531275023970989e-05
5.692978815543925e-06   0.0   -6.531275023970989e-05
5.692978815543925e-06   0.0   -6.531275023970989e-05
-3.0837595218996923e-05   2.7002452918865725e-06   -6.04860735727366e-06
-3.0837595218996923e-05   2.7002452918865725e-06   -6.04860735727366e-06
-3.0837595218996923e-05   2.7002452918865725e-06   -6.04860735727366e-06
-3.0837595218996923e-05   2.7002452918865725e-06   -6.04860735727366e-06
-1.2922210849985876e-05   6.579577917681557e-07   -3.468220880555442e-05
-1.2922210849985876e-05   6.579577917681557e-07   -3.468220880555442e-05
-1.2922210849985876e-05   6.579577917681557e-07   -3.468220880555442e-05
-1.2922210849985876e-05   6.579577917681557e-07   -3.468220880555442e-05
-3.083759521899703e-05   0.0   -6.693289741484194e-05
-3.083759521899703e-05   0.0   -6.693289741484194e-05
-3.083759521899703e-05   0.0   -6.693289741484194e-05
-3.083759521899703e-05   0.0   -6.693289741484194e-05
5.692978815543935e-06   2.7002452918865725e-06   -4.4284601821417304e-06
5.692978815543935e-06   2.7002452918865725e-06   -4.4284601821417304e-06
5.692978815543935e-06   2.7002452918865725e-06   -4.4284601821417304e-06
5.692978815543935e-06   2.7002452918865725e-06   -4.4284601821417304e-06
6.538217918130136e-06   0.0   -6.38956375440236e-05
6.538217918130136e-06   0.0   -6.38956375440236e-05
6.538217918130136e-06   0.0   -6.38956375440236e-05
6.538217918130136e-06   0.0   -6.38956375440236e-05
-3.0201035189153672e-05   4.4839290985994925e-06   -5.353906491043532e-06
-3.0201035189153672e-05   4.4839290985994925e-06   -5.353906491043532e-06
-3.0201035189153672e-05   4.4839290985994925e-06   -5.353906491043532e-06
-3.0201035189153672e-05   4.4839290985994925e-06   -5.353906491043532e-06
-1.2149688650433421e-05   2.531049892348533e-06   -3.4267756531826757e-05
-1.2149688650433421e-05   2.531049892348533e-06   -3.4267756531826757e-05
-1.2149688650433421e-05   2.531049892348533e-06   -3.4267756531826757e-05
-1.2149688650433421e-05   2.531049892348533e-06   -3.4267756531826757e-05
4.27044190677849e-06   0.0   -6.427583641654012e-05
4.27044190677849e-06   0.0   -6.427583641654012e-05
4.27044190677849e-06   0.0   -6.427583641654012e-05
4.27044190677849e-06   0.0   -6.427583641654012e-05
4.4491607614360354e-05   -5.218389841634644e-06   -3.7159414221775195e-07
4.4491607614360354e-05   -5.218389841634644e-06   -3.7159414221775195e-07
4.4491607614360354e-05   -5.218389841634644e-06   -3.7159414221775195e-07
4.4491607614360354e-05   -5.218389841634644e-06   -3.7159414221775195e-07
4.4564965298916574e-05   0.0   -6.776708171273706e-05
4.4564965298916574e-05   0.0   -6.776708171273706e-05
4.4564965298916574e-05   0.0   -6.776708171273706e-05
4.4564965298916574e-05   0.0   -6.776708171273706e-05
5.0657809274147105e-06   -3.935114346076751e-06   4.2596084741208384e-07
5.0657809274147105e-06   -3.935114346076751e-06   4.2596084741208384e-07
5.0657809274147105e-06   -3.935114346076751e-06   4.2596084741208384e-07
5.0657809274147105e-06   -3.935114346076751e-06   4.2596084741208384e-07
2.441770360284753e-05   -2.9093710801641166e-06   -3.244268957119016e-05
2.441770360284753e-05   -2.9093710801641166e-06   -3.244268957119016e-05
2.441770360284753e-05   -2.9093710801641166e-06   -3.244268957119016e-05
2.441770360284753e-05   -2.9093710801641166e-06   -3.244268957119016e-05
5.0657809274147105e-06   0.0   -6.5406013105091e-05
5.0657809274147105e-06   0.0   -6.5406013105091e-05
5.0657809274147105e-06   0.0   -6.5406013105091e-05
5.0657809274147105e-06   0.0   -6.5406013105091e-05
4.4564965298916574e-05   -3.935114346076751e-06   -1.9351077602339646e-06
4.4564965298916574e-05   -3.935114346076751e-06   -1.9351077602339646e-06
4.4564965298916574e-05   -3.935114346076751e-06   -1.9351077602339646e-06
4.4564965298916574e-05   -3.935114346076751e-06   -1.9351077602339646e-06
4.4369139708315204e-05   0.0   -6.679935213655893e-05
4.4369139708315204e-05   0.0   -6.679935213655893e-05
4.4369139708315204e-05   0.0   -6.679935213655893e-05
4.4369139708315204e-05   0.0   -6.679935213655893e-05
5.692978815543935e-06   -2.4776698280815475e-06   -8.524820850912356e-07
5.692978815543935e-06   -2.4776698280815475e-06   -8.524820850912356e-07
5.692978815543935e-06   -2.4776698280815475e-06   -8.524820850912356e-07
5.692978815543935e-06   -2.4776698280815475e-06   -8.524820850912356e-07
2.4717460317864955e-05   -1.1611158595565996e-06   -3.3349883636741207e-05
2.4717460317864955e-05   -1.1611158595565996e-06   -3.3349883636741207e-05
2.4717460317864955e-05   -1.1611158595565996e-06   -3.3349883636741207e-05
2.4717460317864955e-05   -1.1611158595565996e-06   -3.3349883636741207e-05
5.69297881554393e-06   0.0   -6.531275023970994e-05
5.69297881554393e-06   0.0   -6.531275023970994e-05
5.69297881554393e-06   0.0   -6.531275023970994e-05
5.69297881554393e-06   0.0   -6.531275023970994e-05
4.4369139708315204e-05   -2.4776698280815475e-06   -2.339083981940169e-06
4.4369139708315204e-05   -2.4776698280815475e-06   -2.339083981940169e-06
4.4369139708315204e-05   -2.4776698280815475e-06   -2.339083981940169e-06
4.4369139708315204e-05   -2.4776698280815475e-06   -2.339083981940169e-06
4.5223670239235e-05   0.0   -6.420697006959936e-05
4.5223670239235e-05   0.0   -6.420697006959936e-05
4.5223670239235e-05   0.0   -6.420697006959936e-05
4.5223670239235e-05   0.0   -6.420697006959936e-05
6.538217918130147e-06   -5.188875426261015e-07   5.801163244843784e-07
6.538217918130147e-06   -5.188875426261015e-07   5.801163244843784e-07
6.538217918130147e-06   -5.188875426261015e-07   5.801163244843784e-07
6.538217918130147e-06   -5.188875426261015e-07   5.801163244843784e-07
2.5458324527389448e-05   9.214834750922028e-07   -3.181761730157874e-05
2.5458324527389448e-05   9.214834750922028e-07   -3.181761730157874e-05
2.5458324527389448e-05   9.214834750922028e-07   -3.181761730157874e-05
2.5458324527389448e-05   9.214834750922028e-07   -3.181761730157874e-05
4.4491607614360354e-05   0.0   -6.740687032152089e-05
4.4491607614360354e-05   0.0   -6.740687032152089e-05
4.4491607614360354e-05   0.0   -6.740687032152089e-05
4.4491607614360354e-05   0.0   -6.740687032152089e-05
0.00010041572391739348   -1.322472195996785e-05   1.7865157007554167e-05
0.00010041572391739348   -1.322472195996785e-05   1.7865157007554167e-05
0.00010041572391739348   -1.322472195996785e-05   1.7865157007554167e-05
0.00010041572391739348   -1.322472195996785e-05   1.7865157007554167e-05
9.429909323384904e-05   0.0   -7.452018616349013e-05
9.429909323384904e-05   0.0   -7.452018616349013e-05
9.429909323384904e-05   0.0   -7.452018616349013e-05
9.429909323384904e-05   0.0   -7.452018616349013e-05
4.4564965298916574e-05   -1.1255174084588446e-05   1.512313151215037e-05
4.4564965298916574e-05   -1.1255174084588446e-05   1.512313151215037e-05
4.4564965298916574e-05   -1.1255174084588446e-05   1.512313151215037e-05
4.4564965298916574e-05   -1.1255174084588446e-05   1.512313151215037e-05
6.93953504241047e-05   -5.927763201641031e-06   -2.9457290226264902e-05
6.93953504241047e-05   -5.927763201641031e-06   -2.9457290226264902e-05
6.93953504241047e-05   -5.927763201641031e-06   -2.9457290226264902e-05
6.93953504241047e-05   -5.927763201641031e-06   -2.9457290226264902e-05
4.456496529891654e-05   0.0   -6.776708171273699e-05
4.456496529891654e-05   0.0   -6.776708171273699e-05
4.456496529891654e-05   0.0   -6.776708171273699e-05
4.456496529891654e-05   0.0   -6.776708171273699e-05
9.429909323384871e-05   -1.125517408458842e-05   8.370027061397234e-06
9.429909323384871e-05   -1.125517408458842e-05   8.370027061397234e-06
9.429909323384871e-05   -1.125517408458842e-05   8.370027061397234e-06
9.429909323384871e-05   -1.125517408458842e-05   8.370027061397234e-06
9.147622973433571e-05   0.0   -7.297081633630536e-05
9.147622973433571e-05   0.0   -7.297081633630536e-05
9.147622973433571e-05   0.0   -7.297081633630536e-05
9.147622973433571e-05   0.0   -7.297081633630536e-05
4.4369139708315204e-05   -1.0285773666244053e-05   1.1712464573475242e-05
4.4369139708315204e-05   -1.0285773666244053e-05   1.1712464573475242e-05
4.4369139708315204e-05   -1.0285773666244053e-05   1.1712464573475242e-05
4.4369139708315204e-05   -1.0285773666244053e-05   1.1712464573475242e-05
6.80205975166261e-05   -4.336445519640264e-06   -3.127622866167187e-05
6.80205975166261e-05   -4.336445519640264e-06   -3.127622866167187e-05
6.80205975166261e-05   -4.336445519640264e-06   -3.127622866167187e-05
6.80205975166261e-05   -4.336445519640264e-06   -3.127622866167187e-05
4.4369139708315204e-05   0.0   -6.679935213655893e-05
4.4369139708315204e-05   0.0   -6.679935213655893e-05
4.4369139708315204e-05   0.0   -6.679935213655893e-05
4.4369139708315204e-05   0.0   -6.679935213655893e-05
9.14762297343354e-05   -1.0285773666244026e-05   5.541000373728792e-06
9.14762297343354e-05   -1.0285773666244026e-05   5.541000373728792e-06
9.14762297343354e-05   -1.0285773666244026e-05   5.541000373728792e-06
9.14762297343354e-05   -1.0285773666244026e-05   5.541000373728792e-06
8.727724697417493e-05   0.0   -6.900572477574357e-05
8.727724697417493e-05   0.0   -6.900572477574357e-05
8.727724697417493e-05   0.0   -6.900572477574357e-05
8.727724697417493e-05   0.0   -6.900572477574357e-05
4.5223670239235e-05   -7.997924510240524e-06   5.882324488634119e-06
4.5223670239235e-05   -7.997924510240524e-06   5.882324488634119e-06
4.5223670239235e-05   -7.997924510240524e-06   5.882324488634119e-06
4.5223670239235e-05   -7.997924510240524e-06   5.882324488634119e-06
6.582319334124515e-05   -1.8386438659872921e-06   -3.214578240126804e-05
6.582319334124515e-05   -1.8386438659872921e-06   -3.214578240126804e-05
6.582319334124515e-05   -1.8386438659872921e-06   -3.214578240126804e-05
6.582319334124515e-05   -1.8386438659872921e-06   -3.214578240126804e-05
-9.821110394649272e-05   1.2541594093521015e-05   -6.440486402495055e-05
-9.821110394649272e-05   1.2541594093521015e-05   -6.440486402495055e-05
-9.821110394649272e-05   1.2541594093521015e-05   -6.440486402495055e-05
-9.821110394649272e-05   1.2541594093521015e-05   -6.440486402495055e-05
-6.289997666028124e-05   1.1280752619664412e-05   -6.309490098911971e-06