<?xml version="1.0"?> 
<VTKFile type="UnstructuredGrid"> 
   <UnstructuredGrid> 
      <Piece NumberOfPoints="6000"  NumberOfCells="1500">  
          <Points>  
             <DataArray type="Float64" NumberOfComponents="3" format="ascii">   
-500.0   0.0   0.0
-450.0   0.0   0.0
-500.0   30.0   0.0
-500.0   0.0   16.666666666666668
-450.0   0.0   0.0
-450.0   30.0   0.0
-500.0   30.0   0.0
-450.0   30.0   16.666666666666668
-500.0   0.0   16.666666666666668
-500.0   30.0   16.666666666666668
-450.0   30.0   16.666666666666668
-500.0   30.0   0.0
-500.0   0.0   16.666666666666668
-450.0   30.0   16.666666666666668
-450.0   0.0   16.666666666666668
-450.0   0.0   0.0
-500.0   0.0   16.666666666666668
-450.0   30.0   16.666666666666668
-450.0   0.0   0.0
-500.0   30.0   0.0
-500.0   0.0   16.666666666666668
-450.0   0.0   16.666666666666668
-500.0   30.0   16.666666666666668
-500.0   0.0   33.333333333333336
-450.0   0.0   16.666666666666668
-450.0   30.0   16.666666666666668
-500.0   30.0   16.666666666666668
-450.0   30.0   33.333333333333336
-500.0   0.0   33.333333333333336
-500.0   30.0   33.333333333333336
-450.0   30.0   33.333333333333336
-500.0   30.0   16.666666666666668
-500.0   0.0   33.333333333333336
-450.0   30.0   33.333333333333336
-450.0   0.0   33.333333333333336
-450.0   0.0   16.666666666666668
-500.0   0.0   33.333333333333336
-450.0   30.0   33.333333333333336
-450.0   0.0   16.666666666666668
-500.0   30.0   16.666666666666668
-500.0   0.0   33.333333333333336
-450.0   0.0   33.333333333333336
-500.0   30.0   33.333333333333336
-500.0   0.0   50.0
-450.0   0.0   33.333333333333336
-450.0   30.0   33.333333333333336
-500.0   30.0   33.333333333333336
-450.0   30.0   50.0
-500.0   0.0   50.0
-500.0   30.0   50.0
-450.0   30.0   50.0
-500.0   30.0   33.333333333333336
-500.0   0.0   50.0
-450.0   30.0   50.0
-450.0   0.0   50.0
-450.0   0.0   33.333333333333336
-500.0   0.0   50.0
-450.0   30.0   50.0
-450.0   0.0   33.333333333333336
-500.0   30.0   33.333333333333336
-500.0   30.0   0.0
-450.0   30.0   0.0
-500.0   60.0   0.0
-500.0   30.0   16.666666666666668
-450.0   30.0   0.0
-450.0   60.0   0.0
-500.0   60.0   0.0
-450.0   60.0   16.666666666666668
-500.0   30.0   16.666666666666668
-500.0   60.0   16.666666666666668
-450.0   60.0   16.666666666666668
-500.0   60.0   0.0
-500.0   30.0   16.666666666666668
-450.0   60.0   16.666666666666668
-450.0   30.0   16.666666666666668
-450.0   30.0   0.0
-500.0   30.0   16.666666666666668
-450.0   60.0   16.666666666666668
-450.0   30.0   0.0
-500.0   60.0   0.0
-500.0   30.0   16.666666666666668
-450.0   30.0   16.666666666666668
-500.0   60.0   16.666666666666668
-500.0   30.0   33.333333333333336
-450.0   30.0   16.666666666666668
-450.0   60.0   16.666666666666668
-500.0   60.0   16.666666666666668
-450.0   60.0   33.333333333333336
-500.0   30.0   33.333333333333336
-500.0   60.0   33.333333333333336
-450.0   60.0   33.333333333333336
-500.0   60.0   16.666666666666668
-500.0   30.0   33.333333333333336
-450.0   60.0   33.333333333333336
-450.0   30.0   33.333333333333336
-450.0   30.0   16.666666666666668
-500.0   30.0   33.333333333333336
-450.0   60.0   33.333333333333336
-450.0   30.0   16.666666666666668
-500.0   60.0   16.666666666666668
-500.0   30.0   33.333333333333336
-450.0   30.0   33.333333333333336
-500.0   60.0   33.333333333333336
-500.0   30.0   50.0
-450.0   30.0   33.333333333333336
-450.0   60.0   33.333333333333336
-500.0   60.0   33.333333333333336
-450.0   60.0   50.0
-500.0   30.0   50.0
-500.0   60.0   50.0
-450.0   60.0   50.0
-500.0   60.0   33.333333333333336
-500.0   30.0   50.0
-450.0   60.0   50.0
-450.0   30.0   50.0
-450.0   30.0   33.333333333333336
-500.0   30.0   50.0
-450.0   60.0   50.0
-450.0   30.0   33.333333333333336
-500.0   60.0   33.333333333333336
-500.0   60.0   0.0
-450.0   60.0   0.0
-500.0   90.0   0.0
-500.0   60.0   16.666666666666668
-450.0   60.0   0.0
-450.0   90.0   0.0
-500.0   90.0   0.0
-450.0   90.0   16.666666666666668
-500.0   60.0   16.666666666666668
-500.0   90.0   16.666666666666668
-450.0   90.0   16.666666666666668
-500.0   90.0   0.0
-500.0   60.0   16.666666666666668
-450.0   90.0   16.666666666666668
-450.0   60.0   16.666666666666668
-450.0   60.0   0.0
-500.0   60.0   16.666666666666668
-450.0   90.0   16.666666666666668
-450.0   60.0   0.0
-500.0   90.0   0.0
-500.0   60.0   16.666666666666668
-450.0   60.0   16.666666666666668
-500.0   90.0   16.666666666666668
-500.0   60.0   33.333333333333336
-450.0   60.0   16.666666666666668
-450.0   90.0   16.666666666666668
-500.0   90.0   16.666666666666668
-450.0   90.0   33.333333333333336
-500.0   60.0   33.333333333333336
-500.0   90.0   33.333333333333336
-450.0   90.0   33.333333333333336
-500.0   90.0   16.666666666666668
-500.0   60.0   33.333333333333336
-450.0   90.0   33.333333333333336
-450.0   60.0   33.333333333333336
-450.0   60.0   16.666666666666668
-500.0   60.0   33.333333333333336
-450.0   90.0   33.333333333333336
-450.0   60.0   16.666666666666668
-500.0   90.0   16.666666666666668
-500.0   60.0   33.333333333333336
-450.0   60.0   33.333333333333336
-500.0   90.0   33.333333333333336
-500.0   60.0   50.0
-450.0   60.0   33.333333333333336
-450.0   90.0   33.333333333333336
-500.0   90.0   33.333333333333336
-450.0   90.0   50.0
-500.0   60.0   50.0
-500.0   90.0   50.0
-450.0   90.0   50.0
-500.0   90.0   33.333333333333336
-500.0   60.0   50.0
-450.0   90.0   50.0
-450.0   60.0   50.0
-450.0   60.0   33.333333333333336
-500.0   60.0   50.0
-450.0   90.0   50.0
-450.0   60.0   33.333333333333336
-500.0   90.0   33.333333333333336
-500.0   90.0   0.0
-450.0   90.0   0.0
-500.0   120.0   0.0
-500.0   90.0   16.666666666666668
-450.0   90.0   0.0
-450.0   120.0   0.0
-500.0   120.0   0.0
-450.0   120.0   16.666666666666668
-500.0   90.0   16.666666666666668
-500.0   120.0   16.666666666666668
-450.0   120.0   16.666666666666668
-500.0   120.0   0.0
-500.0   90.0   16.666666666666668
-450.0   120.0   16.666666666666668
-450.0   90.0   16.666666666666668
-450.0   90.0   0.0
-500.0   90.0   16.666666666666668
-450.0   120.0   16.666666666666668
-450.0   90.0   0.0
-500.0   120.0   0.0
-500.0   90.0   16.666666666666668
-450.0   90.0   16.666666666666668
-500.0   120.0   16.666666666666668
-500.0   90.0   33.333333333333336
-450.0   90.0   16.666666666666668
-450.0   120.0   16.666666666666668
-500.0   120.0   16.666666666666668
-450.0   120.0   33.333333333333336
-500.0   90.0   33.333333333333336
-500.0   120.0   33.333333333333336
-450.0   120.0   33.333333333333336
-500.0   120.0   16.666666666666668
-500.0   90.0   33.333333333333336
-450.0   120.0   33.333333333333336
-450.0   90.0   33.333333333333336
-450.0   90.0   16.666666666666668
-500.0   90.0   33.333333333333336
-450.0   120.0   33.333333333333336
-450.0   90.0   16.666666666666668
-500.0   120.0   16.666666666666668
-500.0   90.0   33.333333333333336
-450.0   90.0   33.333333333333336
-500.0   120.0   33.333333333333336
-500.0   90.0   50.0
-450.0   90.0   33.333333333333336
-450.0   120.0   33.333333333333336
-500.0   120.0   33.333333333333336
-450.0   120.0   50.0
-500.0   90.0   50.0
-500.0   120.0   50.0
-450.0   120.0   50.0
-500.0   120.0   33.333333333333336
-500.0   90.0   50.0
-450.0   120.0   50.0
-450.0   90.0   50.0
-450.0   90.0   33.333333333333336
-500.0   90.0   50.0
-450.0   120.0   50.0
-450.0   90.0   33.333333333333336
-500.0   120.0   33.333333333333336
-500.0   120.0   0.0
-450.0   120.0   0.0
-500.0   150.0   0.0
-500.0   120.0   16.666666666666668
-450.0   120.0   0.0
-450.0   150.0   0.0
-500.0   150.0   0.0
-450.0   150.0   16.666666666666668
-500.0   120.0   16.666666666666668
-500.0   150.0   16.666666666666668
-450.0   150.0   16.666666666666668
-500.0   150.0   0.0
-500.0   120.0   16.666666666666668
-450.0   150.0   16.666666666666668
-450.0   120.0   16.666666666666668
-450.0   120.0   0.0
-500.0   120.0   16.666666666666668
-450.0   150.0   16.666666666666668
-450.0   120.0   0.0
-500.0   150.0   0.0
-500.0   120.0   16.666666666666668
-450.0   120.0   16.666666666666668
-500.0   150.0   16.666666666666668
-500.0   120.0   33.333333333333336
-450.0   120.0   16.666666666666668
-450.0   150.0   16.666666666666668
-500.0   150.0   16.666666666666668
-450.0   150.0   33.333333333333336
-500.0   120.0   33.333333333333336
-500.0   150.0   33.333333333333336
-450.0   150.0   33.333333333333336
-500.0   150.0   16.666666666666668
-500.0   120.0   33.333333333333336
-450.0   150.0   33.333333333333336
-450.0   120.0   33.333333333333336
-450.0   120.0   16.666666666666668
-500.0   120.0   33.333333333333336
-450.0   150.0   33.333333333333336
-450.0   120.0   16.666666666666668
-500.0   150.0   16.666666666666668
-500.0   120.0   33.333333333333336
-450.0   120.0   33.333333333333336
-500.0   150.0   33.333333333333336
-500.0   120.0   50.0
-450.0   120.0   33.333333333333336
-450.0   150.0   33.333333333333336
-500.0   150.0   33.333333333333336
-450.0   150.0   50.0
-500.0   120.0   50.0
-500.0   150.0   50.0
-450.0   150.0   50.0
-500.0   150.0   33.333333333333336
-500.0   120.0   50.0
-450.0   150.0   50.0
-450.0   120.0   50.0
-450.0   120.0   33.333333333333336
-500.0   120.0   50.0
-450.0   150.0   50.0
-450.0   120.0   33.333333333333336
-500.0   150.0   33.333333333333336
-450.0   0.0   0.0
-400.0   0.0   0.0
-450.0   30.0   0.0
-450.0   0.0   16.666666666666668
-400.0   0.0   0.0
-400.0   30.0   0.0
-450.0   30.0   0.0
-400.0   30.0   16.666666666666668
-450.0   0.0   16.666666666666668
-450.0   30.0   16.666666666666668
-400.0   30.0   16.666666666666668
-450.0   30.0   0.0
-450.0   0.0   16.666666666666668
-400.0   30.0   16.666666666666668
-400.0   0.0   16.666666666666668
-400.0   0.0   0.0
-450.0   0.0   16.666666666666668
-400.0   30.0   16.666666666666668
-400.0   0.0   0.0
-450.0   30.0   0.0
-450.0   0.0   16.666666666666668
-400.0   0.0   16.666666666666668
-450.0   30.0   16.666666666666668
[...]
          <PointData>  
             <DataArray type="Float64" NumberOfComponents="3" Name="Strains" format="ascii">   
-0.00010063189759967634   0.0   -6.602799002685588e-05
-0.00010063189759967634   0.0   -6.602799002685588e-05
-0.00010063189759967634   0.0   -6.602799002685588e-05
-0.00010063189759967634   0.0   -6.602799002685588e-05
-6.40356981843256e-05   1.1150327294092327e-05   1.655872041850633e-06
-6.40356981843256e-05   1.1150327294092327e-05   1.655872041850633e-06
-6.40356981843256e-05   1.1150327294092327e-05   1.655872041850633e-06
-6.40356981843256e-05   1.1150327294092327e-05   1.655872041850633e-06
-6.277061967548871e-05   0.0   -6.231517048247475e-05
-6.277061967548871e-05   0.0   -6.231517048247475e-05
-6.277061967548871e-05   0.0   -6.231517048247475e-05
-6.277061967548871e-05   0.0   -6.231517048247475e-05
-0.00010531770089546415   1.337989060927072e-05   5.686971852554893e-07
-0.00010531770089546415   1.337989060927072e-05   5.686971852554893e-07
-0.00010531770089546415   1.337989060927072e-05   5.686971852554893e-07
-0.00010531770089546415   1.337989060927072e-05   5.686971852554893e-07
-8.170125863758238e-05   3.094016286984261e-06   -3.26205153178422e-05
-8.170125863758238e-05   3.094016286984261e-06   -3.26205153178422e-05
-8.170125863758238e-05   3.094016286984261e-06   -3.26205153178422e-05
-8.170125863758238e-05   3.094016286984261e-06   -3.26205153178422e-05
-0.00010531770089546433   0.0   -7.034310484803721e-05
-0.00010531770089546433   0.0   -7.034310484803721e-05
-0.00010531770089546433   0.0   -7.034310484803721e-05
-0.00010531770089546433   0.0   -7.034310484803721e-05
-6.277061967548871e-05   1.3379890609270748e-05   8.596631550817946e-06
-6.277061967548871e-05   1.3379890609270748e-05   8.596631550817946e-06
-6.277061967548871e-05   1.3379890609270748e-05   8.596631550817946e-06
-6.277061967548871e-05   1.3379890609270748e-05   8.596631550817946e-06
-6.29490933125474e-05   0.0   -6.384081701998124e-05
-6.29490933125474e-05   0.0   -6.384081701998124e-05
-6.29490933125474e-05   0.0   -6.384081701998124e-05
-6.29490933125474e-05   0.0   -6.384081701998124e-05
-0.00010860916001977727   1.4334244199164147e-05   3.6587476392370302e-06
-0.00010860916001977727   1.4334244199164147e-05   3.6587476392370302e-06
-0.00010860916001977727   1.4334244199164147e-05   3.6587476392370302e-06
-0.00010860916001977727   1.4334244199164147e-05   3.6587476392370302e-06
-8.413339710400573e-05   5.41857319004663e-06   -3.178478794824502e-05
-8.413339710400573e-05   5.41857319004663e-06   -3.178478794824502e-05
-8.413339710400573e-05   5.41857319004663e-06   -3.178478794824502e-05
-8.413339710400573e-05   5.41857319004663e-06   -3.178478794824502e-05
-0.00010860916001977746   0.0   -7.244136353947974e-05
-0.00010860916001977746   0.0   -7.244136353947974e-05
-0.00010860916001977746   0.0   -7.244136353947974e-05
-0.00010860916001977746   0.0   -7.244136353947974e-05
-6.29490933125474e-05   1.4334244199164174e-05   1.225929415873553e-05
-6.29490933125474e-05   1.4334244199164174e-05   1.225929415873553e-05
-6.29490933125474e-05   1.4334244199164174e-05   1.225929415873553e-05
-6.29490933125474e-05   1.4334244199164174e-05   1.225929415873553e-05
-6.291763973707822e-05   0.0   -6.423261878088805e-05
-6.291763973707822e-05   0.0   -6.423261878088805e-05
-6.291763973707822e-05   0.0   -6.423261878088805e-05
-6.291763973707822e-05   0.0   -6.423261878088805e-05
-0.00011569843139316682   1.632873015299263e-05   1.3938129220797678e-05
-0.00011569843139316682   1.632873015299263e-05   1.3938129220797678e-05
-0.00011569843139316682   1.632873015299263e-05   1.3938129220797678e-05
-0.00011569843139316682   1.632873015299263e-05   1.3938129220797678e-05
-8.576339987842769e-05   6.840620632159728e-06   -3.0260724257934467e-05
-8.576339987842769e-05   6.840620632159728e-06   -3.0260724257934467e-05
-8.576339987842769e-05   6.840620632159728e-06   -3.0260724257934467e-05
-8.576339987842769e-05   6.840620632159728e-06   -3.0260724257934467e-05
-6.403569818432572e-05   0.0   -5.933779365040046e-05
-6.403569818432572e-05   0.0   -5.933779365040046e-05
-6.403569818432572e-05   0.0   -5.933779365040046e-05
-6.403569818432572e-05   0.0   -5.933779365040046e-05
-2.9160527126991415e-05   4.0899343375233875e-06   1.2414520476706893e-06
-2.9160527126991415e-05   4.0899343375233875e-06   1.2414520476706893e-06
-2.9160527126991415e-05   4.0899343375233875e-06   1.2414520476706893e-06
-2.9160527126991415e-05   4.0899343375233875e-06   1.2414520476706893e-06
-2.804759507274043e-05   0.0   -5.882193404067262e-05
-2.804759507274043e-05   0.0   -5.882193404067262e-05
-2.804759507274043e-05   0.0   -5.882193404067262e-05
-2.804759507274043e-05   0.0   -5.882193404067262e-05
-6.277061967548871e-05   5.822060736336885e-06   -4.44346281122764e-06
-6.277061967548871e-05   5.822060736336885e-06   -4.44346281122764e-06
-6.277061967548871e-05   5.822060736336885e-06   -4.44346281122764e-06
-6.277061967548871e-05   5.822060736336885e-06   -4.44346281122764e-06
-4.604164662853299e-05   4.298830081065399e-07   -2.9089777919215402e-05
-4.604164662853299e-05   4.298830081065399e-07   -2.9089777919215402e-05
-4.604164662853299e-05   4.298830081065399e-07   -2.9089777919215402e-05
-4.604164662853299e-05   4.298830081065399e-07   -2.9089777919215402e-05
-6.277061967548865e-05   0.0   -6.23151704824747e-05
-6.277061967548865e-05   0.0   -6.23151704824747e-05
-6.277061967548865e-05   0.0   -6.23151704824747e-05
-6.277061967548865e-05   0.0   -6.23151704824747e-05
-2.804759507274043e-05   5.822060736336885e-06   -9.502263694255062e-07
-2.804759507274043e-05   5.822060736336885e-06   -9.502263694255062e-07
-2.804759507274043e-05   5.822060736336885e-06   -9.502263694255062e-07
-2.804759507274043e-05   5.822060736336885e-06   -9.502263694255062e-07
-2.742313063519587e-05   0.0   -5.956060774031763e-05
-2.742313063519587e-05   0.0   -5.956060774031763e-05
-2.742313063519587e-05   0.0   -5.956060774031763e-05
-2.742313063519587e-05   0.0   -5.956060774031763e-05
-6.29490933125474e-05   7.133682132772672e-06   -4.630879224395371e-06
-6.29490933125474e-05   7.133682132772672e-06   -4.630879224395371e-06
-6.29490933125474e-05   7.133682132772672e-06   -4.630879224395371e-06
-6.29490933125474e-05   7.133682132772672e-06   -4.630879224395371e-06
-4.50968751553422e-05   2.295468951797605e-06   -3.1481648244485386e-05
-4.50968751553422e-05   2.295468951797605e-06   -3.1481648244485386e-05
-4.50968751553422e-05   2.295468951797605e-06   -3.1481648244485386e-05
-4.50968751553422e-05   2.295468951797605e-06   -3.1481648244485386e-05
-6.29490933125474e-05   0.0   -6.384081701998124e-05
-6.29490933125474e-05   0.0   -6.384081701998124e-05
-6.29490933125474e-05   0.0   -6.384081701998124e-05
-6.29490933125474e-05   0.0   -6.384081701998124e-05
-2.742313063519587e-05   7.133682132772672e-06   -3.5066994473176543e-07
-2.742313063519587e-05   7.133682132772672e-06   -3.5066994473176543e-07
-2.742313063519587e-05   7.133682132772672e-06   -3.5066994473176543e-07
-2.742313063519587e-05   7.133682132772672e-06   -3.5066994473176543e-07
-2.6854746281390245e-05   0.0   -5.9252302013960107e-05
-2.6854746281390245e-05   0.0   -5.9252302013960107e-05
-2.6854746281390245e-05   0.0   -5.9252302013960107e-05
-2.6854746281390245e-05   0.0   -5.9252302013960107e-05
-6.291763973707806e-05   8.300527944879801e-06   -4.12779635474141e-06
-6.291763973707806e-05   8.300527944879801e-06   -4.12779635474141e-06
-6.291763973707806e-05   8.300527944879801e-06   -4.12779635474141e-06
-6.291763973707806e-05   8.300527944879801e-06   -4.12779635474141e-06
-4.4901919796968804e-05   3.823762505017569e-06   -3.146793699100638e-05
-4.4901919796968804e-05   3.823762505017569e-06   -3.146793699100638e-05
-4.4901919796968804e-05   3.823762505017569e-06   -3.146793699100638e-05
-4.4901919796968804e-05   3.823762505017569e-06   -3.146793699100638e-05
-2.9160527126991466e-05   0.0   -5.6883833047886434e-05
-2.9160527126991466e-05   0.0   -5.6883833047886434e-05
-2.9160527126991466e-05   0.0   -5.6883833047886434e-05
-2.9160527126991466e-05   0.0   -5.6883833047886434e-05
3.7911967136142798e-06   -5.236549873281364e-07   -2.278486305940353e-06
3.7911967136142798e-06   -5.236549873281364e-07   -2.278486305940353e-06
3.7911967136142798e-06   -5.236549873281364e-07   -2.278486305940353e-06
3.7911967136142798e-06   -5.236549873281364e-07   -2.278486305940353e-06
4.500907538903677e-06   0.0   -5.820271880977458e-05
4.500907538903677e-06   0.0   -5.820271880977458e-05
4.500907538903677e-06   0.0   -5.820271880977458e-05
4.500907538903677e-06   0.0   -5.820271880977458e-05
-2.8047595072740383e-05   1.032025384829736e-06   -4.574429687932412e-06
-2.8047595072740383e-05   1.032025384829736e-06   -4.574429687932412e-06
-2.8047595072740383e-05   1.032025384829736e-06   -4.574429687932412e-06
-2.8047595072740383e-05   1.032025384829736e-06   -4.574429687932412e-06
-1.2329809794043843e-05   -1.099071468240286e-06   -2.9492080373917853e-05
-1.2329809794043843e-05   -1.099071468240286e-06   -2.9492080373917853e-05
-1.2329809794043843e-05   -1.099071468240286e-06   -2.9492080373917853e-05
-1.2329809794043843e-05   -1.099071468240286e-06   -2.9492080373917853e-05
-2.804759507274043e-05   0.0   -5.882193404067262e-05
-2.804759507274043e-05   0.0   -5.882193404067262e-05
-2.804759507274043e-05   0.0   -5.882193404067262e-05
-2.804759507274043e-05   0.0   -5.882193404067262e-05
4.500907538903685e-06   1.032025384829736e-06   -3.955214457034573e-06
4.500907538903685e-06   1.032025384829736e-06   -3.955214457034573e-06
4.500907538903685e-06   1.032025384829736e-06   -3.955214457034573e-06
4.500907538903685e-06   1.032025384829736e-06   -3.955214457034573e-06
5.060864738226082e-06   0.0   -5.8119562344588515e-05
5.060864738226082e-06   0.0   -5.8119562344588515e-05
5.060864738226082e-06   0.0   -5.8119562344588515e-05
5.060864738226082e-06   0.0   -5.8119562344588515e-05
-2.7423130635195774e-05   2.4017423262150166e-06   -5.420615451281022e-06
-2.7423130635195774e-05   2.4017423262150166e-06   -5.420615451281022e-06
-2.7423130635195774e-05   2.4017423262150166e-06   -5.420615451281022e-06
-2.7423130635195774e-05   2.4017423262150166e-06   -5.420615451281022e-06
-1.149336516725715e-05   5.85309746736671e-07   -3.0880365016825104e-05
-1.149336516725715e-05   5.85309746736671e-07   -3.0880365016825104e-05
-1.149336516725715e-05   5.85309746736671e-07   -3.0880365016825104e-05
-1.149336516725715e-05   5.85309746736671e-07   -3.0880365016825104e-05
-2.742313063519587e-05   0.0   -5.956060774031763e-05
-2.742313063519587e-05   0.0   -5.956060774031763e-05
-2.742313063519587e-05   0.0   -5.956060774031763e-05
-2.742313063519587e-05   0.0   -5.956060774031763e-05
5.060864738226092e-06   2.40174232621503e-06   -3.979570055552027e-06
5.060864738226092e-06   2.40174232621503e-06   -3.979570055552027e-06
5.060864738226092e-06   2.40174232621503e-06   -3.979570055552027e-06
5.060864738226092e-06   2.40174232621503e-06   -3.979570055552027e-06
5.814770956450972e-06   0.0   -5.685931613002789e-05
5.814770956450972e-06   0.0   -5.685931613002789e-05
5.814770956450972e-06   0.0   -5.685931613002789e-05
5.814770956450972e-06   0.0   -5.685931613002789e-05
-2.6854746281390177e-05   3.98830980655361e-06   -4.8031066175580655e-06
-2.6854746281390177e-05   3.98830980655361e-06   -4.8031066175580655e-06
-2.6854746281390177e-05   3.98830980655361e-06   -4.8031066175580655e-06
-2.6854746281390177e-05   3.98830980655361e-06   -4.8031066175580655e-06
-1.0804179839372425e-05   2.251076341908031e-06   -3.0511710608800362e-05
-1.0804179839372425e-05   2.251076341908031e-06   -3.0511710608800362e-05
-1.0804179839372425e-05   2.251076341908031e-06   -3.0511710608800362e-05
-1.0804179839372425e-05   2.251076341908031e-06   -3.0511710608800362e-05
3.7911967136142866e-06   0.0   -5.7198026040283316e-05
3.7911967136142866e-06   0.0   -5.7198026040283316e-05
3.7911967136142866e-06   0.0   -5.7198026040283316e-05
3.7911967136142866e-06   0.0   -5.7198026040283316e-05
3.955856125895418e-05   -4.63980754452018e-06   -3.696363247622465e-07
3.955856125895418e-05   -4.63980754452018e-06   -3.696363247622465e-07
3.955856125895418e-05   -4.63980754452018e-06   -3.696363247622465e-07
3.955856125895418e-05   -4.63980754452018e-06   -3.696363247622465e-07
3.962647778345115e-05   0.0   -6.0301644468489084e-05
3.962647778345115e-05   0.0   -6.0301644468489084e-05
3.962647778345115e-05   0.0   -6.0301644468489084e-05
3.962647778345115e-05   0.0   -6.0301644468489084e-05
4.500907538903693e-06   -3.4982094311905153e-06   3.398982644709719e-07
4.500907538903693e-06   -3.4982094311905153e-06   3.398982644709719e-07
4.500907538903693e-06   -3.4982094311905153e-06   3.398982644709719e-07
4.500907538903693e-06   -3.4982094311905153e-06   3.398982644709719e-07
2.170883724853272e-05   -2.5863486901714754e-06   -2.888710102952213e-05
2.170883724853272e-05   -2.5863486901714754e-06   -2.888710102952213e-05
2.170883724853272e-05   -2.5863486901714754e-06   -2.888710102952213e-05
2.170883724853272e-05   -2.5863486901714754e-06   -2.888710102952213e-05
4.500907538903693e-06   0.0   -5.820271880977478e-05
4.500907538903693e-06   0.0   -5.820271880977478e-05
4.500907538903693e-06   0.0   -5.820271880977478e-05
4.500907538903693e-06   0.0   -5.820271880977478e-05
3.962647778345115e-05   -3.4982094311905153e-06   -1.7590273942433353e-06
3.962647778345115e-05   -3.4982094311905153e-06   -1.7590273942433353e-06
3.962647778345115e-05   -3.4982094311905153e-06   -1.7590273942433353e-06
3.962647778345115e-05   -3.4982094311905153e-06   -1.7590273942433353e-06
3.945467328914623e-05   0.0   -5.944054237852409e-05
3.945467328914623e-05   0.0   -5.944054237852409e-05
3.945467328914623e-05   0.0   -5.944054237852409e-05
3.945467328914623e-05   0.0   -5.944054237852409e-05
5.060864738226092e-06   -2.201633389892457e-06   -7.965480930550645e-07
5.060864738226092e-06   -2.201633389892457e-06   -7.965480930550645e-07
5.060864738226092e-06   -2.201633389892457e-06   -7.965480930550645e-07
5.060864738226092e-06   -2.201633389892457e-06   -7.965480930550645e-07
2.1977790414024962e-05   -1.0315196406244254e-06   -2.9693492468947307e-05
2.1977790414024962e-05   -1.0315196406244254e-06   -2.9693492468947307e-05
2.1977790414024962e-05   -1.0315196406244254e-06   -2.9693492468947307e-05
2.1977790414024962e-05   -1.0315196406244254e-06   -2.9693492468947307e-05
5.0608647382260865e-06   0.0   -5.811956234458857e-05
5.0608647382260865e-06   0.0   -5.811956234458857e-05
5.0608647382260865e-06   0.0   -5.811956234458857e-05
5.0608647382260865e-06   0.0   -5.811956234458857e-05
3.945467328914623e-05   -2.201633389892457e-06   -2.1175281269905383e-06
3.945467328914623e-05   -2.201633389892457e-06   -2.1175281269905383e-06
3.945467328914623e-05   -2.201633389892457e-06   -2.1175281269905383e-06
3.945467328914623e-05   -2.201633389892457e-06   -2.1175281269905383e-06
4.021678334215394e-05   0.0   -5.7134834526798765e-05
4.021678334215394e-05   0.0   -5.7134834526798765e-05
4.021678334215394e-05   0.0   -5.7134834526798765e-05
4.021678334215394e-05   0.0   -5.7134834526798765e-05
5.814770956450982e-06   -4.591973279512916e-07   4.773711794769427e-07
5.814770956450982e-06   -4.591973279512916e-07   4.773711794769427e-07
5.814770956450982e-06   -4.591973279512916e-07   4.773711794769427e-07
5.814770956450982e-06   -4.591973279512916e-07   4.773711794769427e-07
2.263882404019e-05   8.20606514824877e-07   -2.83305995990871e-05
2.263882404019e-05   8.20606514824877e-07   -2.83305995990871e-05
2.263882404019e-05   8.20606514824877e-07   -2.83305995990871e-05
2.263882404019e-05   8.20606514824877e-07   -2.83305995990871e-05
3.955856125895418e-05   0.0   -5.998191056699542e-05
3.955856125895418e-05   0.0   -5.998191056699542e-05
3.955856125895418e-05   0.0   -5.998191056699542e-05
3.955856125895418e-05   0.0   -5.998191056699542e-05
8.929627765712954e-05   -1.1760259147572781e-05   1.5858127941420367e-05
8.929627765712954e-05   -1.1760259147572781e-05   1.5858127941420367e-05
8.929627765712954e-05   -1.1760259147572781e-05   1.5858127941420367e-05
8.929627765712954e-05   -1.1760259147572781e-05   1.5858127941420367e-05
8.386046499695195e-05   0.0   -6.630607853841744e-05
8.386046499695195e-05   0.0   -6.630607853841744e-05
8.386046499695195e-05   0.0   -6.630607853841744e-05
8.386046499695195e-05   0.0   -6.630607853841744e-05
3.962647778345115e-05   -1.0007390116547249e-05   1.3421667554012237e-05
3.962647778345115e-05   -1.0007390116547249e-05   1.3421667554012237e-05
3.962647778345115e-05   -1.0007390116547249e-05   1.3421667554012237e-05
3.962647778345115e-05   -1.0007390116547249e-05   1.3421667554012237e-05
6.170951312795307e-05   -5.2701399761850165e-06   -2.622574143770826e-05
6.170951312795307e-05   -5.2701399761850165e-06   -2.622574143770826e-05
6.170951312795307e-05   -5.2701399761850165e-06   -2.622574143770826e-05
6.170951312795307e-05   -5.2701399761850165e-06   -2.622574143770826e-05
3.962647778345112e-05   0.0   -6.0301644468489037e-05
3.962647778345112e-05   0.0   -6.0301644468489037e-05
3.962647778345112e-05   0.0   -6.0301644468489037e-05
3.962647778345112e-05   0.0   -6.0301644468489037e-05
8.386046499695167e-05   -1.0007390116547208e-05   7.41723348408386e-06
8.386046499695167e-05   -1.0007390116547208e-05   7.41723348408386e-06
8.386046499695167e-05   -1.0007390116547208e-05   7.41723348408386e-06
8.386046499695167e-05   -1.0007390116547208e-05   7.41723348408386e-06
8.135285038237138e-05   0.0   -6.49275159679309e-05
8.135285038237138e-05   0.0   -6.49275159679309e-05
8.135285038237138e-05   0.0   -6.49275159679309e-05
8.135285038237138e-05   0.0   -6.49275159679309e-05
3.945467328914623e-05   -9.144955982344683e-06   1.0389752776851147e-05
3.945467328914623e-05   -9.144955982344683e-06   1.0389752776851147e-05
3.945467328914623e-05   -9.144955982344683e-06   1.0389752776851147e-05
3.945467328914623e-05   -9.144955982344683e-06   1.0389752776851147e-05
6.048966408291123e-05   -3.854892916201516e-06   -2.7842603052443088e-05
6.048966408291123e-05   -3.854892916201516e-06   -2.7842603052443088e-05
6.048966408291123e-05   -3.854892916201516e-06   -2.7842603052443088e-05
6.048966408291123e-05   -3.854892916201516e-06   -2.7842603052443088e-05
3.945467328914623e-05   0.0   -5.944054237852409e-05
3.945467328914623e-05   0.0   -5.944054237852409e-05
3.945467328914623e-05   0.0   -5.944054237852409e-05
3.945467328914623e-05   0.0   -5.944054237852409e-05
8.135285038237109e-05   -9.144955982344656e-06   4.902779187444318e-06
8.135285038237109e-05   -9.144955982344656e-06   4.902779187444318e-06
8.135285038237109e-05   -9.144955982344656e-06   4.902779187444318e-06
8.135285038237109e-05   -9.144955982344656e-06   4.902779187444318e-06
7.76211783815925e-05   0.0   -6.140034601265078e-05
7.76211783815925e-05   0.0   -6.140034601265078e-05
7.76211783815925e-05   0.0   -6.140034601265078e-05
7.76211783815925e-05   0.0   -6.140034601265078e-05
4.021678334215394e-05   -7.109185809753545e-06   5.205823872265699e-06
4.021678334215394e-05   -7.109185809753545e-06   5.205823872265699e-06
4.021678334215394e-05   -7.109185809753545e-06   5.205823872265699e-06
4.021678334215394e-05   -7.109185809753545e-06   5.205823872265699e-06
5.8537925835369435e-05   -1.6331696951056671e-06   -2.8615023285215474e-05
5.8537925835369435e-05   -1.6331696951056671e-06   -2.8615023285215474e-05
5.8537925835369435e-05   -1.6331696951056671e-06   -2.8615023285215474e-05
5.8537925835369435e-05   -1.6331696951056671e-06   -2.8615023285215474e-05
-8.732498610903718e-05   1.1150327294092314e-05   -5.7285230754084275e-05
-8.732498610903718e-05   1.1150327294092314e-05   -5.7285230754084275e-05
-8.732498610903718e-05   1.1150327294092314e-05   -5.7285230754084275e-05
-8.732498610903718e-05   1.1150327294092314e-05   -5.7285230754084275e-05
-5.592981583851839e-05   1.0028055668602953e-05   -5.633309945179878e-06