<?xml version="1.0"?> 
<VTKFile type="UnstructuredGrid"> 
   <UnstructuredGrid> 
      <Piece NumberOfPoints="6000"  NumberOfCells="1500">  
          <Points>  
             <DataArray type="Float64" NumberOfComponents="3" format="ascii">   
-500.0   0.0   0.0
-450.0   0.0   0.0
-500.0   30.0   0.0
-500.0   0.0   16.666666666666668
-450.0   0.0   0.0
-450.0   30.0   0.0
-500.0   30.0   0.0
-450.0   30.0   16.666666666666668
-500.0   0.0   16.666666666666668
-500.0   30.0   16.666666666666668
-450.0   30.0   16.666666666666668
-500.0   30.0   0.0
-500.0   0.0   16.666666666666668
-450.0   30.0   16.666666666666668
-450.0   0.0   16.666666666666668
-450.0   0.0   0.0
-500.0   0.0   16.666666666666668
-450.0   30.0   16.666666666666668
-450.0   0.0   0.0
-500.0   30.0   0.0
-500.0   0.0   16.666666666666668
-450.0   0.0   16.666666666666668
-500.0   30.0   16.666666666666668
-500.0   0.0   33.333333333333336
-450.0   0.0   16.666666666666668
-450.0   30.0   16.666666666666668
-500.0   30.0   16.666666666666668
-450.0   30.0   33.333333333333336
-500.0   0.0   33.333333333333336
-500.0   30.0   33.333333333333336
-450.0   30.0   33.333333333333336
-500.0   30.0   16.666666666666668
-500.0   0.0   33.333333333333336
-450.0   30.0   33.333333333333336
-450.0   0.0   33.333333333333336
-450.0   0.0   16.666666666666668
-500.0   0.0   33.333333333333336
-450.0   30.0   33.333333333333336
-450.0   0.0   16.666666666666668
-500.0   30.0   16.666666666666668
-500.0   0.0   33.333333333333336
-450.0   0.0   33.333333333333336
-500.0   30.0   33.333333333333336
-500.0   0.0   50.0
-450.0   0.0   33.333333333333336
-450.0   30.0   33.333333333333336
-500.0   30.0   33.333333333333336
-450.0   30.0   50.0
-500.0   0.0   50.0
-500.0   30.0   50.0
-450.0   30.0   50.0
-500.0   30.0   33.333333333333336
-500.0   0.0   50.0
-450.0   30.0   50.0
-450.0   0.0   50.0
-450.0   0.0   33.333333333333336
-500.0   0.0   50.0
-450.0   30.0   50.0
-450.0   0.0   33.333333333333336
-500.0   30.0   33.333333333333336
-500.0   30.0   0.0
-450.0   30.0   0.0
-500.0   60.0   0.0
-500.0   30.0   16.666666666666668
-450.0   30.0   0.0
-450.0   60.0   0.0
-500.0   60.0   0.0
-450.0   60.0   16.666666666666668
-500.0   30.0   16.666666666666668
-500.0   60.0   16.666666666666668
-450.0   60.0   16.666666666666668
-500.0   60.0   0.0
-500.0   30.0   16.666666666666668
-450.0   60.0   16.666666666666668
-450.0   30.0   16.666666666666668
-450.0   30.0   0.0
-500.0   30.0   16.666666666666668
-450.0   60.0   16.666666666666668
-450.0   30.0   0.0
-500.0   60.0   0.0
-500.0   30.0   16.666666666666668
-450.0   30.0   16.666666666666668
-500.0   60.0   16.666666666666668
-500.0   30.0   33.333333333333336
-450.0   30.0   16.666666666666668
-450.0   60.0   16.666666666666668
-500.0   60.0   16.666666666666668
-450.0   60.0   33.333333333333336
-500.0   30.0   33.333333333333336
-500.0   60.0   33.333333333333336
-450.0   60.0   33.333333333333336
-500.0   60.0   16.666666666666668
-500.0   30.0   33.333333333333336
-450.0   60.0   33.333333333333336
-450.0   30.0   33.333333333333336
-450.0   30.0   16.666666666666668
-500.0   30.0   33.333333333333336
-450.0   60.0   33.333333333333336
-450.0   30.0   16.666666666666668
-500.0   60.0   16.666666666666668
-500.0   30.0   33.333333333333336
-450.0   30.0   33.333333333333336
-500.0   60.0   33.333333333333336
-500.0   30.0   50.0
-450.0   30.0   33.333333333333336
-450.0   60.0   33.333333333333336
-500.0   60.0   33.333333333333336
-450.0   60.0   50.0
-500.0   30.0   50.0
-500.0   60.0   50.0
-450.0   60.0   50.0
-500.0   60.0   33.333333333333336
-500.0   30.0   50.0
-450.0   60.0   50.0
-450.0   30.0   50.0
-450.0   30.0   33.333333333333336
-500.0   30.0   50.0
-450.0   60.0   50.0
-450.0   30.0   33.333333333333336
-500.0   60.0   33.333333333333336
-500.0   60.0   0.0
-450.0   60.0   0.0
-500.0   90.0   0.0
-500.0   60.0   16.666666666666668
-450.0   60.0   0.0
-450.0   90.0   0.0
-500.0   90.0   0.0
-450.0   90.0   16.666666666666668
-500.0   60.0   16.666666666666668
-500.0   90.0   16.666666666666668
-450.0   90.0   16.666666666666668
-500.0   90.0   0.0
-500.0   60.0   16.666666666666668
-450.0   90.0   16.666666666666668
-450.0   60.0   16.666666666666668
-450.0   60.0   0.0
-500.0   60.0   16.666666666666668
-450.0   90.0   16.666666666666668
-450.0   60.0   0.0
-500.0   90.0   0.0
-500.0   60.0   16.666666666666668
-450.0   60.0   16.666666666666668
-500.0   90.0   16.666666666666668
-500.0   60.0   33.333333333333336
-450.0   60.0   16.666666666666668
-450.0   90.0   16.666666666666668
-500.0   90.0   16.666666666666668
-450.0   90.0   33.333333333333336
-500.0   60.0   33.333333333333336
-500.0   90.0   33.333333333333336
-450.0   90.0   33.333333333333336
-500.0   90.0   16.666666666666668
-500.0   60.0   33.333333333333336
-450.0   90.0   33.333333333333336
-450.0   60.0   33.333333333333336
-450.0   60.0   16.666666666666668
-500.0   60.0   33.333333333333336
-450.0   90.0   33.333333333333336
-450.0   60.0   16.666666666666668
-500.0   90.0   16.666666666666668
-500.0   60.0   33.333333333333336
-450.0   60.0   33.333333333333336
-500.0   90.0   33.333333333333336
-500.0   60.0   50.0
-450.0   60.0   33.333333333333336
-450.0   90.0   33.333333333333336
-500.0   90.0   33.333333333333336
-450.0   90.0   50.0
-500.0   60.0   50.0
-500.0   90.0   50.0
-450.0   90.0   50.0
-500.0   90.0   33.333333333333336
-500.0   60.0   50.0
-450.0   90.0   50.0
-450.0   60.0   50.0
-450.0   60.0   33.333333333333336
-500.0   60.0   50.0
-450.0   90.0   50.0
-450.0   60.0   33.333333333333336
-500.0   90.0   33.333333333333336
-500.0   90.0   0.0
-450.0   90.0   0.0
-500.0   120.0   0.0
-500.0   90.0   16.666666666666668
-450.0   90.0   0.0
-450.0   120.0   0.0
-500.0   120.0   0.0
-450.0   120.0   16.666666666666668
-500.0   90.0   16.666666666666668
-500.0   120.0   16.666666666666668
-450.0   120.0   16.666666666666668
-500.0   120.0   0.0
-500.0   90.0   16.666666666666668
-450.0   120.0   16.666666666666668
-450.0   90.0   16.666666666666668
-450.0   90.0   0.0
-500.0   90.0   16.666666666666668
-450.0   120.0   16.666666666666668
-450.0   90.0   0.0
-500.0   120.0   0.0
-500.0   90.0   16.666666666666668
-450.0   90.0   16.666666666666668
-500.0   120.0   16.666666666666668
-500.0   90.0   33.333333333333336
-450.0   90.0   16.666666666666668
-450.0   120.0   16.666666666666668
-500.0   120.0   16.666666666666668
-450.0   120.0   33.333333333333336
-500.0   90.0   33.333333333333336
-500.0   120.0   33.333333333333336
-450.0   120.0   33.333333333333336
-500.0   120.0   16.666666666666668
-500.0   90.0   33.333333333333336
-450.0   120.0   33.333333333333336
-450.0   90.0   33.333333333333336
-450.0   90.0   16.666666666666668
-500.0   90.0   33.333333333333336
-450.0   120.0   33.333333333333336
-450.0   90.0   16.666666666666668
-500.0   120.0   16.666666666666668
-500.0   90.0   33.333333333333336
-450.0   90.0   33.333333333333336
-500.0   120.0   33.333333333333336
-500.0   90.0   50.0
-450.0   90.0   33.333333333333336
-450.0   120.0   33.333333333333336
-500.0   120.0   33.333333333333336
-450.0   120.0   50.0
-500.0   90.0   50.0
-500.0   120.0   50.0
-450.0   120.0   50.0
-500.0   120.0   33.333333333333336
-500.0   90.0   50.0
-450.0   120.0   50.0
-450.0   90.0   50.0
-450.0   90.0   33.333333333333336
-500.0   90.0   50.0
-450.0   120.0   50.0
-450.0   90.0   33.333333333333336
-500.0   120.0   33.333333333333336
-500.0   120.0   0.0
-450.0   120.0   0.0
-500.0   150.0   0.0
-500.0   120.0   16.666666666666668
-450.0   120.0   0.0
-450.0   150.0   0.0
-500.0   150.0   0.0
-450.0   150.0   16.666666666666668
-500.0   120.0   16.666666666666668
-500.0   150.0   16.666666666666668
-450.0   150.0   16.666666666666668
-500.0   150.0   0.0
-500.0   120.0   16.666666666666668
-450.0   150.0   16.666666666666668
-450.0   120.0   16.666666666666668
-450.0   120.0   0.0
-500.0   120.0   16.666666666666668
-450.0   150.0   16.666666666666668
-450.0   120.0   0.0
-500.0   150.0   0.0
-500.0   120.0   16.666666666666668
-450.0   120.0   16.666666666666668
-500.0   150.0   16.666666666666668
-500.0   120.0   33.333333333333336
-450.0   120.0   16.666666666666668
-450.0   150.0   16.666666666666668
-500.0   150.0   16.666666666666668
-450.0   150.0   33.333333333333336
-500.0   120.0   33.333333333333336
-500.0   150.0   33.333333333333336
-450.0   150.0   33.333333333333336
-500.0   150.0   16.666666666666668
-500.0   120.0   33.333333333333336
-450.0   150.0   33.333333333333336
-450.0   120.0   33.333333333333336
-450.0   120.0   16.666666666666668
-500.0   120.0   33.333333333333336
-450.0   150.0   33.333333333333336
-450.0   120.0   16.666666666666668
-500.0   150.0   16.666666666666668
-500.0   120.0   33.333333333333336
-450.0   120.0   33.333333333333336
-500.0   150.0   33.333333333333336
-500.0   120.0   50.0
-450.0   120.0   33.333333333333336
-450.0   150.0   33.333333333333336
-500.0   150.0   33.333333333333336
-450.0   150.0   50.0
-500.0   120.0   50.0
-500.0   150.0   50.0
-450.0   150.0   50.0
-500.0   150.0   33.333333333333336
-500.0   120.0   50.0
-450.0   150.0   50.0
-450.0   120.0   50.0
-450.0   120.0   33.333333333333336
-500.0   120.0   50.0
-450.0   150.0   50.0
-450.0   120.0   33.333333333333336
-500.0   150.0   33.333333333333336
-450.0   0.0   0.0
-400.0   0.0   0.0
-450.0   30.0   0.0
-450.0   0.0   16.666666666666668
-400.0   0.0   0.0
-400.0   30.0   0.0
-450.0   30.0   0.0
-400.0   30.0   16.666666666666668
-450.0   0.0   16.666666666666668
-450.0   30.0   16.666666666666668
-400.0   30.0   16.666666666666668
-450.0   30.0   0.0
-450.0   0.0   16.666666666666668
-400.0   30.0   16.666666666666668
-400.0   0.0   16.666666666666668
-400.0   0.0   0.0
-450.0   0.0   16.666666666666668
-400.0   30.0   16.666666666666668
-400.0   0.0   0.0
-450.0   30.0   0.0
-450.0   0.0   16.666666666666668
-400.0   0.0   16.666666666666668
-450.0   30.0   16.666666666666668
[...]
          <PointData>  
             <DataArray type="Float64" NumberOfComponents="3" Name="Strains" format="ascii">   
-0.00012566627725337903   0.0   -8.238872985365979e-05
-0.00012566627725337903   0.0   -8.238872985365979e-05
-0.00012566627725337903   0.0   -8.238872985365979e-05
-0.00012566627725337903   0.0   -8.238872985365979e-05
-7.997242082077977e-05   1.3932860892949865e-05   2.1274140697753632e-06
-7.997242082077977e-05   1.3932860892949865e-05   2.1274140697753632e-06
-7.997242082077977e-05   1.3932860892949865e-05   2.1274140697753632e-06
-7.997242082077977e-05   1.3932860892949865e-05   2.1274140697753632e-06
-7.839695842424468e-05   0.0   -7.774734525313863e-05
-7.839695842424468e-05   0.0   -7.774734525313863e-05
-7.839695842424468e-05   0.0   -7.774734525313863e-05
-7.839695842424468e-05   0.0   -7.774734525313863e-05
-0.00013152329092700886   1.6714681082323517e-05   7.677336020745829e-07
-0.00013152329092700886   1.6714681082323517e-05   7.677336020745829e-07
-0.00013152329092700886   1.6714681082323517e-05   7.677336020745829e-07
-0.00013152329092700886   1.6714681082323517e-05   7.677336020745829e-07
-0.00010203161783881167   3.867820500434301e-06   -4.067693852912051e-05
-0.00010203161783881167   3.867820500434301e-06   -4.067693852912051e-05
-0.00010203161783881167   3.867820500434301e-06   -4.067693852912051e-05
-0.00010203161783881167   3.867820500434301e-06   -4.067693852912051e-05
-0.0001315232909270091   0.0   -8.777615390253275e-05
-0.0001315232909270091   0.0   -8.777615390253275e-05
-0.0001315232909270091   0.0   -8.777615390253275e-05
-0.0001315232909270091   0.0   -8.777615390253275e-05
-7.839695842424468e-05   1.6714681082323545e-05   1.0796542251468699e-05
-7.839695842424468e-05   1.6714681082323545e-05   1.0796542251468699e-05
-7.839695842424468e-05   1.6714681082323545e-05   1.0796542251468699e-05
-7.839695842424468e-05   1.6714681082323545e-05   1.0796542251468699e-05
-7.862468381293063e-05   0.0   -7.965211219230231e-05
-7.862468381293063e-05   0.0   -7.965211219230231e-05
-7.862468381293063e-05   0.0   -7.965211219230231e-05
-7.862468381293063e-05   0.0   -7.965211219230231e-05
-0.00013563965890357   1.7905773259718354e-05   4.629382336265972e-06
-0.00013563965890357   1.7905773259718354e-05   4.629382336265972e-06
-0.00013563965890357   1.7905773259718354e-05   4.629382336265972e-06
-0.00013563965890357   1.7905773259718354e-05   4.629382336265972e-06
-0.00010507398736996968   6.770034758525354e-06   -3.9631960452352037e-05
-0.00010507398736996968   6.770034758525354e-06   -3.9631960452352037e-05
-0.00010507398736996968   6.770034758525354e-06   -3.9631960452352037e-05
-0.00010507398736996968   6.770034758525354e-06   -3.9631960452352037e-05
-0.00013563965890357022   0.0   -9.039557614813334e-05
-0.00013563965890357022   0.0   -9.039557614813334e-05
-0.00013563965890357022   0.0   -9.039557614813334e-05
-0.00013563965890357022   0.0   -9.039557614813334e-05
-7.862468381293063e-05   1.7905773259718354e-05   1.537284629209699e-05
-7.862468381293063e-05   1.7905773259718354e-05   1.537284629209699e-05
-7.862468381293063e-05   1.7905773259718354e-05   1.537284629209699e-05
-7.862468381293063e-05   1.7905773259718354e-05   1.537284629209699e-05
-7.859083316390617e-05   0.0   -8.014051551688336e-05
-7.859083316390617e-05   0.0   -8.014051551688336e-05
-7.859083316390617e-05   0.0   -8.014051551688336e-05
-7.859083316390617e-05   0.0   -8.014051551688336e-05
-0.00014450086792640684   2.0393697999184987e-05   1.7473323621107126e-05
-0.00014450086792640684   2.0393697999184987e-05   1.7473323621107126e-05
-0.00014450086792640684   2.0393697999184987e-05   1.7473323621107126e-05
-0.00014450086792640684   2.0393697999184987e-05   1.7473323621107126e-05
-0.00010711524603373803   8.545883859374979e-06   -3.7727357716121535e-05
-0.00010711524603373803   8.545883859374979e-06   -3.7727357716121535e-05
-0.00010711524603373803   8.545883859374979e-06   -3.7727357716121535e-05
-0.00010711524603373803   8.545883859374979e-06   -3.7727357716121535e-05
-7.997242082077991e-05   0.0   -7.402901331788987e-05
-7.997242082077991e-05   0.0   -7.402901331788987e-05
-7.997242082077991e-05   0.0   -7.402901331788987e-05
-7.997242082077991e-05   0.0   -7.402901331788987e-05
-3.641220336714264e-05   5.112234174995084e-06   1.6386896098359105e-06
-3.641220336714264e-05   5.112234174995084e-06   1.6386896098359105e-06
-3.641220336714264e-05   5.112234174995084e-06   1.6386896098359105e-06
-3.641220336714264e-05   5.112234174995084e-06   1.6386896098359105e-06
-3.502720595829135e-05   0.0   -7.33826651389913e-05
-3.502720595829135e-05   0.0   -7.33826651389913e-05
-3.502720595829135e-05   0.0   -7.33826651389913e-05
-3.502720595829135e-05   0.0   -7.33826651389913e-05
-7.839695842424468e-05   7.274466856912218e-06   -5.464424476549749e-06
-7.839695842424468e-05   7.274466856912218e-06   -5.464424476549749e-06
-7.839695842424468e-05   7.274466856912218e-06   -5.464424476549749e-06
-7.839695842424468e-05   7.274466856912218e-06   -5.464424476549749e-06
-5.749981338953553e-05   5.386234824154769e-07   -3.6251493509700034e-05
-5.749981338953553e-05   5.386234824154769e-07   -3.6251493509700034e-05
-5.749981338953553e-05   5.386234824154769e-07   -3.6251493509700034e-05
-5.749981338953553e-05   5.386234824154769e-07   -3.6251493509700034e-05
-7.839695842424462e-05   0.0   -7.774734525313856e-05
-7.839695842424462e-05   0.0   -7.774734525313856e-05
-7.839695842424462e-05   0.0   -7.774734525313856e-05
-7.839695842424462e-05   0.0   -7.774734525313856e-05
-3.502720595829135e-05   7.274466856912218e-06   -1.0997443624024156e-06
-3.502720595829135e-05   7.274466856912218e-06   -1.0997443624024156e-06
-3.502720595829135e-05   7.274466856912218e-06   -1.0997443624024156e-06
-3.502720595829135e-05   7.274466856912218e-06   -1.0997443624024156e-06
-3.4252059802798195e-05   0.0   -7.430518708936661e-05
-3.4252059802798195e-05   0.0   -7.430518708936661e-05
-3.4252059802798195e-05   0.0   -7.430518708936661e-05
-3.4252059802798195e-05   0.0   -7.430518708936661e-05
-7.862468381293063e-05   8.911541838226207e-06   -5.697738842081601e-06
-7.862468381293063e-05   8.911541838226207e-06   -5.697738842081601e-06
-7.862468381293063e-05   8.911541838226207e-06   -5.697738842081601e-06
-7.862468381293063e-05   8.911541838226207e-06   -5.697738842081601e-06
-5.632450911352133e-05   2.8684651364766715e-06   -3.9238850653380424e-05
-5.632450911352133e-05   2.8684651364766715e-06   -3.9238850653380424e-05
-5.632450911352133e-05   2.8684651364766715e-06   -3.9238850653380424e-05
-5.632450911352133e-05   2.8684651364766715e-06   -3.9238850653380424e-05
-7.862468381293063e-05   0.0   -7.965211219230231e-05
-7.862468381293063e-05   0.0   -7.965211219230231e-05
-7.862468381293063e-05   0.0   -7.965211219230231e-05
-7.862468381293063e-05   0.0   -7.965211219230231e-05
-3.4252059802798195e-05   8.911541838226207e-06   -3.508137391458922e-07
-3.4252059802798195e-05   8.911541838226207e-06   -3.508137391458922e-07
-3.4252059802798195e-05   8.911541838226207e-06   -3.508137391458922e-07
-3.4252059802798195e-05   8.911541838226207e-06   -3.508137391458922e-07
-3.354732409691692e-05   0.0   -7.391968799240698e-05
-3.354732409691692e-05   0.0   -7.391968799240698e-05
-3.354732409691692e-05   0.0   -7.391968799240698e-05
-3.354732409691692e-05   0.0   -7.391968799240698e-05
-7.859083316390597e-05   1.036804587412719e-05   -5.068000405234602e-06
-7.859083316390597e-05   1.036804587412719e-05   -5.068000405234602e-06
-7.859083316390597e-05   1.036804587412719e-05   -5.068000405234602e-06
-7.859083316390597e-05   1.036804587412719e-05   -5.068000405234602e-06
-5.608600395492376e-05   4.777020166579397e-06   -3.922143366234322e-05
-5.608600395492376e-05   4.777020166579397e-06   -3.922143366234322e-05
-5.608600395492376e-05   4.777020166579397e-06   -3.922143366234322e-05
-5.608600395492376e-05   4.777020166579397e-06   -3.922143366234322e-05
-3.641220336714271e-05   0.0   -7.096167281289282e-05
-3.641220336714271e-05   0.0   -7.096167281289282e-05
-3.641220336714271e-05   0.0   -7.096167281289282e-05
-3.641220336714271e-05   0.0   -7.096167281289282e-05
4.749687099942074e-06   -6.532899665072893e-07   -2.750496014322476e-06
4.749687099942074e-06   -6.532899665072893e-07   -2.750496014322476e-06
4.749687099942074e-06   -6.532899665072893e-07   -2.750496014322476e-06
4.749687099942074e-06   -6.532899665072893e-07   -2.750496014322476e-06
5.630654315925462e-06   0.0   -7.26093074004073e-05
5.630654315925462e-06   0.0   -7.26093074004073e-05
5.630654315925462e-06   0.0   -7.26093074004073e-05
5.630654315925462e-06   0.0   -7.26093074004073e-05
-3.502720595829129e-05   1.2889295643062445e-06   -5.619564681963239e-06
-3.502720595829129e-05   1.2889295643062445e-06   -5.619564681963239e-06
-3.502720595829129e-05   1.2889295643062445e-06   -5.619564681963239e-06
-3.502720595829129e-05   1.2889295643062445e-06   -5.619564681963239e-06
-1.539077452560856e-05   -1.3730288229289495e-06   -3.674977537075988e-05
-1.539077452560856e-05   -1.3730288229289495e-06   -3.674977537075988e-05
-1.539077452560856e-05   -1.3730288229289495e-06   -3.674977537075988e-05
-1.539077452560856e-05   -1.3730288229289495e-06   -3.674977537075988e-05
-3.502720595829135e-05   0.0   -7.33826651389913e-05
-3.502720595829135e-05   0.0   -7.33826651389913e-05
-3.502720595829135e-05   0.0   -7.33826651389913e-05
-3.502720595829135e-05   0.0   -7.33826651389913e-05
5.630654315925472e-06   1.2889295643062445e-06   -4.846206943379497e-06
5.630654315925472e-06   1.2889295643062445e-06   -4.846206943379497e-06
5.630654315925472e-06   1.2889295643062445e-06   -4.846206943379497e-06
5.630654315925472e-06   1.2889295643062445e-06   -4.846206943379497e-06
6.32509289286186e-06   0.0   -7.250593813483162e-05
6.32509289286186e-06   0.0   -7.250593813483162e-05
6.32509289286186e-06   0.0   -7.250593813483162e-05
6.32509289286186e-06   0.0   -7.250593813483162e-05
-3.425205980279808e-05   2.9987482575580878e-06   -6.676599263266487e-06
-3.425205980279808e-05   2.9987482575580878e-06   -6.676599263266487e-06
-3.425205980279808e-05   2.9987482575580878e-06   -6.676599263266487e-06
-3.425205980279808e-05   2.9987482575580878e-06   -6.676599263266487e-06
-1.4351056532714715e-05   7.306058367996201e-07   -3.848405259428374e-05
-1.4351056532714715e-05   7.306058367996201e-07   -3.848405259428374e-05
-1.4351056532714715e-05   7.306058367996201e-07   -3.848405259428374e-05
-1.4351056532714715e-05   7.306058367996201e-07   -3.848405259428374e-05
-3.4252059802798195e-05   0.0   -7.430518708936661e-05
-3.4252059802798195e-05   0.0   -7.430518708936661e-05
-3.4252059802798195e-05   0.0   -7.430518708936661e-05
-3.4252059802798195e-05   0.0   -7.430518708936661e-05
6.325092892861871e-06   2.9987482575581013e-06   -4.877350308731639e-06
6.325092892861871e-06   2.9987482575581013e-06   -4.877350308731639e-06
6.325092892861871e-06   2.9987482575581013e-06   -4.877350308731639e-06
6.325092892861871e-06   2.9987482575581013e-06   -4.877350308731639e-06
7.2616648798097386e-06   0.0   -7.09319589580197e-05
7.2616648798097386e-06   0.0   -7.09319589580197e-05
7.2616648798097386e-06   0.0   -7.09319589580197e-05
7.2616648798097386e-06   0.0   -7.09319589580197e-05
-3.354732409691684e-05   4.979548390645375e-06   -5.904706364529202e-06
-3.354732409691684e-05   4.979548390645375e-06   -5.904706364529202e-06
-3.354732409691684e-05   4.979548390645375e-06   -5.904706364529202e-06
-3.354732409691684e-05   4.979548390645375e-06   -5.904706364529202e-06
-1.3495197461494201e-05   2.8110234427889942e-06   -3.802380245485316e-05
-1.3495197461494201e-05   2.8110234427889942e-06   -3.802380245485316e-05
-1.3495197461494201e-05   2.8110234427889942e-06   -3.802380245485316e-05
-1.3495197461494201e-05   2.8110234427889942e-06   -3.802380245485316e-05
4.749687099942081e-06   0.0   -7.135364679279718e-05
4.749687099942081e-06   0.0   -7.135364679279718e-05
4.749687099942081e-06   0.0   -7.135364679279718e-05
4.749687099942081e-06   0.0   -7.135364679279718e-05
4.9424653969766035e-05   -5.796972138749122e-06   -3.735519596733387e-07
4.9424653969766035e-05   -5.796972138749122e-06   -3.735519596733387e-07
4.9424653969766035e-05   -5.796972138749122e-06   -3.735519596733387e-07
4.9424653969766035e-05   -5.796972138749122e-06   -3.735519596733387e-07
4.950345281438186e-05   0.0   -7.523251895698536e-05
4.950345281438186e-05   0.0   -7.523251895698536e-05
4.950345281438186e-05   0.0   -7.523251895698536e-05
4.950345281438186e-05   0.0   -7.523251895698536e-05
5.6306543159254815e-06   -4.3720192609630144e-06   5.120234303530687e-07
5.6306543159254815e-06   -4.3720192609630144e-06   5.120234303530687e-07
5.6306543159254815e-06   -4.3720192609630144e-06   5.120234303530687e-07
5.6306543159254815e-06   -4.3720192609630144e-06   5.120234303530687e-07
2.712656995716197e-05   -3.2323934701568256e-06   -3.59982781128581e-05
2.712656995716197e-05   -3.2323934701568256e-06   -3.59982781128581e-05
2.712656995716197e-05   -3.2323934701568256e-06   -3.59982781128581e-05
2.712656995716197e-05   -3.2323934701568256e-06   -3.59982781128581e-05
5.6306543159254815e-06   0.0   -7.260930740040756e-05
5.6306543159254815e-06   0.0   -7.260930740040756e-05
5.6306543159254815e-06   0.0   -7.260930740040756e-05
5.6306543159254815e-06   0.0   -7.260930740040756e-05
4.950345281438186e-05   -4.3720192609630144e-06   -2.111188126224743e-06
4.950345281438186e-05   -4.3720192609630144e-06   -2.111188126224743e-06
4.950345281438186e-05   -4.3720192609630144e-06   -2.111188126224743e-06
4.950345281438186e-05   -4.3720192609630144e-06   -2.111188126224743e-06
4.9283606127484374e-05   0.0   -7.415816189459413e-05
4.9283606127484374e-05   0.0   -7.415816189459413e-05
4.9283606127484374e-05   0.0   -7.415816189459413e-05
4.9283606127484374e-05   0.0   -7.415816189459413e-05
6.325092892861871e-06   -2.753706266270638e-06   -9.084160771275863e-07
6.325092892861871e-06   -2.753706266270638e-06   -9.084160771275863e-07
6.325092892861871e-06   -2.753706266270638e-06   -9.084160771275863e-07
6.325092892861871e-06   -2.753706266270638e-06   -9.084160771275863e-07
2.7457130221704928e-05   -1.2907120784888076e-06   -3.7006274804535076e-05
2.7457130221704928e-05   -1.2907120784888076e-06   -3.7006274804535076e-05
2.7457130221704928e-05   -1.2907120784888076e-06   -3.7006274804535076e-05
2.7457130221704928e-05   -1.2907120784888076e-06   -3.7006274804535076e-05
6.325092892861865e-06   0.0   -7.250593813483168e-05
6.325092892861865e-06   0.0   -7.250593813483168e-05
6.325092892861865e-06   0.0   -7.250593813483168e-05
6.325092892861865e-06   0.0   -7.250593813483168e-05
4.9283606127484374e-05   -2.753706266270638e-06   -2.5606398368899756e-06
4.9283606127484374e-05   -2.753706266270638e-06   -2.5606398368899756e-06
4.9283606127484374e-05   -2.753706266270638e-06   -2.5606398368899756e-06
4.9283606127484374e-05   -2.753706266270638e-06   -2.5606398368899756e-06
5.0230557136316586e-05   0.0   -7.127910561240031e-05
5.0230557136316586e-05   0.0   -7.127910561240031e-05
5.0230557136316586e-05   0.0   -7.127910561240031e-05
5.0230557136316586e-05   0.0   -7.127910561240031e-05
7.261664879809751e-06   -5.785777573008436e-07   6.828614694915533e-07
7.261664879809751e-06   -5.785777573008436e-07   6.828614694915533e-07
7.261664879809751e-06   -5.785777573008436e-07   6.828614694915533e-07
7.261664879809751e-06   -5.785777573008436e-07   6.828614694915533e-07
2.8277825014589205e-05   1.0223604353595218e-06   -3.5304635004070376e-05
2.8277825014589205e-05   1.0223604353595218e-06   -3.5304635004070376e-05
2.8277825014589205e-05   1.0223604353595218e-06   -3.5304635004070376e-05
2.8277825014589205e-05   1.0223604353595218e-06   -3.5304635004070376e-05
4.9424653969766035e-05   0.0   -7.483183007604665e-05
4.9424653969766035e-05   0.0   -7.483183007604665e-05
4.9424653969766035e-05   0.0   -7.483183007604665e-05
4.9424653969766035e-05   0.0   -7.483183007604665e-05
0.00011153517017765706   -1.4689184772362823e-05   1.9872186073687995e-05
0.00011153517017765706   -1.4689184772362823e-05   1.9872186073687995e-05
0.00011153517017765706   -1.4689184772362823e-05   1.9872186073687995e-05
0.00011153517017765706   -1.4689184772362823e-05   1.9872186073687995e-05
0.00010473772147074613   0.0   -8.273429378856307e-05
0.00010473772147074613   0.0   -8.273429378856307e-05
0.00010473772147074613   0.0   -8.273429378856307e-05
0.00010473772147074613   0.0   -8.273429378856307e-05
4.950345281438186e-05   -1.2502958052629508e-05   1.6824595470288408e-05
4.950345281438186e-05   -1.2502958052629508e-05   1.6824595470288408e-05
4.950345281438186e-05   -1.2502958052629508e-05   1.6824595470288408e-05
4.950345281438186e-05   -1.2502958052629508e-05   1.6824595470288408e-05
7.708118772025608e-05   -6.585386427097032e-06   -3.268883901482142e-05
7.708118772025608e-05   -6.585386427097032e-06   -3.268883901482142e-05
7.708118772025608e-05   -6.585386427097032e-06   -3.268883901482142e-05
7.708118772025608e-05   -6.585386427097032e-06   -3.268883901482142e-05
4.950345281438182e-05   0.0   -7.52325189569853e-05
4.950345281438182e-05   0.0   -7.52325189569853e-05
4.950345281438182e-05   0.0   -7.52325189569853e-05
4.950345281438182e-05   0.0   -7.52325189569853e-05
0.00010473772147074577   -1.2502958052629454e-05   9.322820638710662e-06
0.00010473772147074577   -1.2502958052629454e-05   9.322820638710662e-06
0.00010473772147074577   -1.2502958052629454e-05   9.322820638710662e-06
0.00010473772147074577   -1.2502958052629454e-05   9.322820638710662e-06
0.0001015996090863004   0.0   -8.101411670468022e-05
0.0001015996090863004   0.0   -8.101411670468022e-05
0.0001015996090863004   0.0   -8.101411670468022e-05
0.0001015996090863004   0.0   -8.101411670468022e-05
4.9283606127484374e-05   -1.1426591350143477e-05   1.3035176370099243e-05
4.9283606127484374e-05   -1.1426591350143477e-05   1.3035176370099243e-05
4.9283606127484374e-05   -1.1426591350143477e-05   1.3035176370099243e-05
4.9283606127484374e-05   -1.1426591350143477e-05   1.3035176370099243e-05
7.555153095034109e-05   -4.817998123079052e-06   -3.47098542709006e-05
7.555153095034109e-05   -4.817998123079052e-06   -3.47098542709006e-05
7.555153095034109e-05   -4.817998123079052e-06   -3.47098542709006e-05
7.555153095034109e-05   -4.817998123079052e-06   -3.47098542709006e-05
4.9283606127484374e-05   0.0   -7.415816189459413e-05
4.9283606127484374e-05   0.0   -7.415816189459413e-05
4.9283606127484374e-05   0.0   -7.415816189459413e-05
4.9283606127484374e-05   0.0   -7.415816189459413e-05
0.00010159960908630005   -1.142659135014345e-05   6.17922156001313e-06
0.00010159960908630005   -1.142659135014345e-05   6.17922156001313e-06
0.00010159960908630005   -1.142659135014345e-05   6.17922156001313e-06
0.00010159960908630005   -1.142659135014345e-05   6.17922156001313e-06
9.693331556675806e-05   0.0   -7.661110353883673e-05
9.693331556675806e-05   0.0   -7.661110353883673e-05
9.693331556675806e-05   0.0   -7.661110353883673e-05
9.693331556675806e-05   0.0   -7.661110353883673e-05
5.0230557136316586e-05   -8.886663210727557e-06   6.558825105002403e-06
5.0230557136316586e-05   -8.886663210727557e-06   6.558825105002403e-06
5.0230557136316586e-05   -8.886663210727557e-06   6.558825105002403e-06
5.0230557136316586e-05   -8.886663210727557e-06   6.558825105002403e-06
7.31084608471213e-05   -2.0441180368689442e-06   -3.567654151732059e-05
7.31084608471213e-05   -2.0441180368689442e-06   -3.567654151732059e-05
7.31084608471213e-05   -2.0441180368689442e-06   -3.567654151732059e-05
7.31084608471213e-05   -2.0441180368689442e-06   -3.567654151732059e-05
-0.00010909722178394898   1.3932860892949811e-05   -7.152449729581706e-05
-0.00010909722178394898   1.3932860892949811e-05   -7.152449729581706e-05
-0.00010909722178394898   1.3932860892949811e-05   -7.152449729581706e-05
-0.00010909722178394898   1.3932860892949811e-05   -7.152449729581706e-05