<?xml version="1.0"?> 
<VTKFile type="UnstructuredGrid"> 
   <UnstructuredGrid> 
      <Piece NumberOfPoints="6000"  NumberOfCells="1500">  
          <Points>  
             <DataArray type="Float64" NumberOfComponents="3" format="ascii">   
-500.0   0.0   0.0
-450.0   0.0   0.0
-500.0   30.0   0.0
-500.0   0.0   16.666666666666668
-450.0   0.0   0.0
-450.0   30.0   0.0
-500.0   30.0   0.0
-450.0   30.0   16.666666666666668
-500.0   0.0   16.666666666666668
-500.0   30.0   16.666666666666668
-450.0   30.0   16.666666666666668
-500.0   30.0   0.0
-500.0   0.0   16.666666666666668
-450.0   30.0   16.666666666666668
-450.0   0.0   16.666666666666668
-450.0   0.0   0.0
-500.0   0.0   16.666666666666668
-450.0   30.0   16.666666666666668
-450.0   0.0   0.0
-500.0   30.0   0.0
-500.0   0.0   16.666666666666668
-450.0   0.0   16.666666666666668
-500.0   30.0   16.666666666666668
-500.0   0.0   33.333333333333336
-450.0   0.0   16.666666666666668
-450.0   30.0   16.666666666666668
-500.0   30.0   16.666666666666668
-450.0   30.0   33.333333333333336
-500.0   0.0   33.333333333333336
-500.0   30.0   33.333333333333336
-450.0   30.0   33.333333333333336
-500.0   30.0   16.666666666666668
-500.0   0.0   33.333333333333336
-450.0   30.0   33.333333333333336
-450.0   0.0   33.333333333333336
-450.0   0.0   16.666666666666668
-500.0   0.0   33.333333333333336
-450.0   30.0   33.333333333333336
-450.0   0.0   16.666666666666668
-500.0   30.0   16.666666666666668
-500.0   0.0   33.333333333333336
-450.0   0.0   33.333333333333336
-500.0   30.0   33.333333333333336
-500.0   0.0   50.0
-450.0   0.0   33.333333333333336
-450.0   30.0   33.333333333333336
-500.0   30.0   33.333333333333336
-450.0   30.0   50.0
-500.0   0.0   50.0
-500.0   30.0   50.0
-450.0   30.0   50.0
-500.0   30.0   33.333333333333336
-500.0   0.0   50.0
-450.0   30.0   50.0
-450.0   0.0   50.0
-450.0   0.0   33.333333333333336
-500.0   0.0   50.0
-450.0   30.0   50.0
-450.0   0.0   33.333333333333336
-500.0   30.0   33.333333333333336
-500.0   30.0   0.0
-450.0   30.0   0.0
-500.0   60.0   0.0
-500.0   30.0   16.666666666666668
-450.0   30.0   0.0
-450.0   60.0   0.0
-500.0   60.0   0.0
-450.0   60.0   16.666666666666668
-500.0   30.0   16.666666666666668
-500.0   60.0   16.666666666666668
-450.0   60.0   16.666666666666668
-500.0   60.0   0.0
-500.0   30.0   16.666666666666668
-450.0   60.0   16.666666666666668
-450.0   30.0   16.666666666666668
-450.0   30.0   0.0
-500.0   30.0   16.666666666666668
-450.0   60.0   16.666666666666668
-450.0   30.0   0.0
-500.0   60.0   0.0
-500.0   30.0   16.666666666666668
-450.0   30.0   16.666666666666668
-500.0   60.0   16.666666666666668
-500.0   30.0   33.333333333333336
-450.0   30.0   16.666666666666668
-450.0   60.0   16.666666666666668
-500.0   60.0   16.666666666666668
-450.0   60.0   33.333333333333336
-500.0   30.0   33.333333333333336
-500.0   60.0   33.333333333333336
-450.0   60.0   33.333333333333336
-500.0   60.0   16.666666666666668
-500.0   30.0   33.333333333333336
-450.0   60.0   33.333333333333336
-450.0   30.0   33.333333333333336
-450.0   30.0   16.666666666666668
-500.0   30.0   33.333333333333336
-450.0   60.0   33.333333333333336
-450.0   30.0   16.666666666666668
-500.0   60.0   16.666666666666668
-500.0   30.0   33.333333333333336
-450.0   30.0   33.333333333333336
-500.0   60.0   33.333333333333336
-500.0   30.0   50.0
-450.0   30.0   33.333333333333336
-450.0   60.0   33.333333333333336
-500.0   60.0   33.333333333333336
-450.0   60.0   50.0
-500.0   30.0   50.0
-500.0   60.0   50.0
-450.0   60.0   50.0
-500.0   60.0   33.333333333333336
-500.0   30.0   50.0
-450.0   60.0   50.0
-450.0   30.0   50.0
-450.0   30.0   33.333333333333336
-500.0   30.0   50.0
-450.0   60.0   50.0
-450.0   30.0   33.333333333333336
-500.0   60.0   33.333333333333336
-500.0   60.0   0.0
-450.0   60.0   0.0
-500.0   90.0   0.0
-500.0   60.0   16.666666666666668
-450.0   60.0   0.0
-450.0   90.0   0.0
-500.0   90.0   0.0
-450.0   90.0   16.666666666666668
-500.0   60.0   16.666666666666668
-500.0   90.0   16.666666666666668
-450.0   90.0   16.666666666666668
-500.0   90.0   0.0
-500.0   60.0   16.666666666666668
-450.0   90.0   16.666666666666668
-450.0   60.0   16.666666666666668
-450.0   60.0   0.0
-500.0   60.0   16.666666666666668
-450.0   90.0   16.666666666666668
-450.0   60.0   0.0
-500.0   90.0   0.0
-500.0   60.0   16.666666666666668
-450.0   60.0   16.666666666666668
-500.0   90.0   16.666666666666668
-500.0   60.0   33.333333333333336
-450.0   60.0   16.666666666666668
-450.0   90.0   16.666666666666668
-500.0   90.0   16.666666666666668
-450.0   90.0   33.333333333333336
-500.0   60.0   33.333333333333336
-500.0   90.0   33.333333333333336
-450.0   90.0   33.333333333333336
-500.0   90.0   16.666666666666668
-500.0   60.0   33.333333333333336
-450.0   90.0   33.333333333333336
-450.0   60.0   33.333333333333336
-450.0   60.0   16.666666666666668
-500.0   60.0   33.333333333333336
-450.0   90.0   33.333333333333336
-450.0   60.0   16.666666666666668
-500.0   90.0   16.666666666666668
-500.0   60.0   33.333333333333336
-450.0   60.0   33.333333333333336
-500.0   90.0   33.333333333333336
-500.0   60.0   50.0
-450.0   60.0   33.333333333333336
-450.0   90.0   33.333333333333336
-500.0   90.0   33.333333333333336
-450.0   90.0   50.0
-500.0   60.0   50.0
-500.0   90.0   50.0
-450.0   90.0   50.0
-500.0   90.0   33.333333333333336
-500.0   60.0   50.0
-450.0   90.0   50.0
-450.0   60.0   50.0
-450.0   60.0   33.333333333333336
-500.0   60.0   50.0
-450.0   90.0   50.0
-450.0   60.0   33.333333333333336
-500.0   90.0   33.333333333333336
-500.0   90.0   0.0
-450.0   90.0   0.0
-500.0   120.0   0.0
-500.0   90.0   16.666666666666668
-450.0   90.0   0.0
-450.0   120.0   0.0
-500.0   120.0   0.0
-450.0   120.0   16.666666666666668
-500.0   90.0   16.666666666666668
-500.0   120.0   16.666666666666668
-450.0   120.0   16.666666666666668
-500.0   120.0   0.0
-500.0   90.0   16.666666666666668
-450.0   120.0   16.666666666666668
-450.0   90.0   16.666666666666668
-450.0   90.0   0.0
-500.0   90.0   16.666666666666668
-450.0   120.0   16.666666666666668
-450.0   90.0   0.0
-500.0   120.0   0.0
-500.0   90.0   16.666666666666668
-450.0   90.0   16.666666666666668
-500.0   120.0   16.666666666666668
-500.0   90.0   33.333333333333336
-450.0   90.0   16.666666666666668
-450.0   120.0   16.666666666666668
-500.0   120.0   16.666666666666668
-450.0   120.0   33.333333333333336
-500.0   90.0   33.333333333333336
-500.0   120.0   33.333333333333336
-450.0   120.0   33.333333333333336
-500.0   120.0   16.666666666666668
-500.0   90.0   33.333333333333336
-450.0   120.0   33.333333333333336
-450.0   90.0   33.333333333333336
-450.0   90.0   16.666666666666668
-500.0   90.0   33.333333333333336
-450.0   120.0   33.333333333333336
-450.0   90.0   16.666666666666668
-500.0   120.0   16.666666666666668
-500.0   90.0   33.333333333333336
-450.0   90.0   33.333333333333336
-500.0   120.0   33.333333333333336
-500.0   90.0   50.0
-450.0   90.0   33.333333333333336
-450.0   120.0   33.333333333333336
-500.0   120.0   33.333333333333336
-450.0   120.0   50.0
-500.0   90.0   50.0
-500.0   120.0   50.0
-450.0   120.0   50.0
-500.0   120.0   33.333333333333336
-500.0   90.0   50.0
-450.0   120.0   50.0
-450.0   90.0   50.0
-450.0   90.0   33.333333333333336
-500.0   90.0   50.0
-450.0   120.0   50.0
-450.0   90.0   33.333333333333336
-500.0   120.0   33.333333333333336
-500.0   120.0   0.0
-450.0   120.0   0.0
-500.0   150.0   0.0
-500.0   120.0   16.666666666666668
-450.0   120.0   0.0
-450.0   150.0   0.0
-500.0   150.0   0.0
-450.0   150.0   16.666666666666668
-500.0   120.0   16.666666666666668
-500.0   150.0   16.666666666666668
-450.0   150.0   16.666666666666668
-500.0   150.0   0.0
-500.0   120.0   16.666666666666668
-450.0   150.0   16.666666666666668
-450.0   120.0   16.666666666666668
-450.0   120.0   0.0
-500.0   120.0   16.666666666666668
-450.0   150.0   16.666666666666668
-450.0   120.0   0.0
-500.0   150.0   0.0
-500.0   120.0   16.666666666666668
-450.0   120.0   16.666666666666668
-500.0   150.0   16.666666666666668
-500.0   120.0   33.333333333333336
-450.0   120.0   16.666666666666668
-450.0   150.0   16.666666666666668
-500.0   150.0   16.666666666666668
-450.0   150.0   33.333333333333336
-500.0   120.0   33.333333333333336
-500.0   150.0   33.333333333333336
-450.0   150.0   33.333333333333336
-500.0   150.0   16.666666666666668
-500.0   120.0   33.333333333333336
-450.0   150.0   33.333333333333336
-450.0   120.0   33.333333333333336
-450.0   120.0   16.666666666666668
-500.0   120.0   33.333333333333336
-450.0   150.0   33.333333333333336
-450.0   120.0   16.666666666666668
-500.0   150.0   16.666666666666668
-500.0   120.0   33.333333333333336
-450.0   120.0   33.333333333333336
-500.0   150.0   33.333333333333336
-500.0   120.0   50.0
-450.0   120.0   33.333333333333336
-450.0   150.0   33.333333333333336
-500.0   150.0   33.333333333333336
-450.0   150.0   50.0
-500.0   120.0   50.0
-500.0   150.0   50.0
-450.0   150.0   50.0
-500.0   150.0   33.333333333333336
-500.0   120.0   50.0
-450.0   150.0   50.0
-450.0   120.0   50.0
-450.0   120.0   33.333333333333336
-500.0   120.0   50.0
-450.0   150.0   50.0
-450.0   120.0   33.333333333333336
-500.0   150.0   33.333333333333336
-450.0   0.0   0.0
-400.0   0.0   0.0
-450.0   30.0   0.0
-450.0   0.0   16.666666666666668
-400.0   0.0   0.0
-400.0   30.0   0.0
-450.0   30.0   0.0
-400.0   30.0   16.666666666666668
-450.0   0.0   16.666666666666668
-450.0   30.0   16.666666666666668
-400.0   30.0   16.666666666666668
-450.0   30.0   0.0
-450.0   0.0   16.666666666666668
-400.0   30.0   16.666666666666668
-400.0   0.0   16.666666666666668
-400.0   0.0   0.0
-450.0   0.0   16.666666666666668
-400.0   30.0   16.666666666666668
-400.0   0.0   0.0
-450.0   30.0   0.0
-450.0   0.0   16.666666666666668
-400.0   0.0   16.666666666666668
-450.0   30.0   16.666666666666668
[...]
          <PointData>  
             <DataArray type="Float64" NumberOfComponents="3" Name="Strains" format="ascii">   
-8.811470777282534e-05   0.0   -5.784762011345406e-05
-8.811470777282534e-05   0.0   -5.784762011345406e-05
-8.811470777282534e-05   0.0   -5.784762011345406e-05
-8.811470777282534e-05   0.0   -5.784762011345406e-05
-5.606733686609884e-05   9.759060494663613e-06   1.420101027888146e-06
-5.606733686609884e-05   9.759060494663613e-06   1.420101027888146e-06
-5.606733686609884e-05   9.759060494663613e-06   1.420101027888146e-06
-5.606733686609884e-05   9.759060494663613e-06   1.420101027888146e-06
-5.495745030111082e-05   0.0   -5.45990830971429e-05
-5.495745030111082e-05   0.0   -5.45990830971429e-05
-5.495745030111082e-05   0.0   -5.45990830971429e-05
-5.495745030111082e-05   0.0   -5.45990830971429e-05
-9.221490587969188e-05   1.1712495372744343e-05   4.6917897684583404e-07
-9.221490587969188e-05   1.1712495372744343e-05   4.6917897684583404e-07
-9.221490587969188e-05   1.1712495372744343e-05   4.6917897684583404e-07
-9.221490587969188e-05   1.1712495372744343e-05   4.6917897684583404e-07
-7.153607903696796e-05   2.7071141802592955e-06   -2.859230371220297e-05
-7.153607903696796e-05   2.7071141802592955e-06   -2.859230371220297e-05
-7.153607903696796e-05   2.7071141802592955e-06   -2.859230371220297e-05
-7.153607903696796e-05   2.7071141802592955e-06   -2.859230371220297e-05
-9.221490587969204e-05   0.0   -6.162658032078952e-05
-9.221490587969204e-05   0.0   -6.162658032078952e-05
-9.221490587969204e-05   0.0   -6.162658032078952e-05
-9.221490587969204e-05   0.0   -6.162658032078952e-05
-5.495745030111082e-05   1.171249537274437e-05   7.496676200492461e-06
-5.495745030111082e-05   1.171249537274437e-05   7.496676200492461e-06
-5.495745030111082e-05   1.171249537274437e-05   7.496676200492461e-06
-5.495745030111082e-05   1.171249537274437e-05   7.496676200492461e-06
-5.511129806235567e-05   0.0   -5.5935169433820726e-05
-5.511129806235567e-05   0.0   -5.5935169433820726e-05
-5.511129806235567e-05   0.0   -5.5935169433820726e-05
-5.511129806235567e-05   0.0   -5.5935169433820726e-05
-9.509391057788078e-05   1.2548479668887064e-05   3.1734302907224644e-06
-9.509391057788078e-05   1.2548479668887064e-05   3.1734302907224644e-06
-9.509391057788078e-05   1.2548479668887064e-05   3.1734302907224644e-06
-9.509391057788078e-05   1.2548479668887064e-05   3.1734302907224644e-06
-7.366310197102372e-05   4.742842405807325e-06   -2.7861201696191415e-05
-7.366310197102372e-05   4.742842405807325e-06   -2.7861201696191415e-05
-7.366310197102372e-05   4.742842405807325e-06   -2.7861201696191415e-05
-7.366310197102372e-05   4.742842405807325e-06   -2.7861201696191415e-05
-9.509391057788094e-05   0.0   -6.346425723515298e-05
-9.509391057788094e-05   0.0   -6.346425723515298e-05
-9.509391057788094e-05   0.0   -6.346425723515298e-05
-9.509391057788094e-05   0.0   -6.346425723515298e-05
-5.511129806235567e-05   1.2548479668887091e-05   1.0702518092054711e-05
-5.511129806235567e-05   1.2548479668887091e-05   1.0702518092054711e-05
-5.511129806235567e-05   1.2548479668887091e-05   1.0702518092054711e-05
-5.511129806235567e-05   1.2548479668887091e-05   1.0702518092054711e-05
-5.5081043023663926e-05   0.0   -5.627867041289044e-05
-5.5081043023663926e-05   0.0   -5.627867041289044e-05
-5.5081043023663926e-05   0.0   -5.627867041289044e-05
-5.5081043023663926e-05   0.0   -5.627867041289044e-05
-0.00010129721312654648   1.4296246229896336e-05   1.217053202064294e-05
-0.00010129721312654648   1.4296246229896336e-05   1.217053202064294e-05
-0.00010129721312654648   1.4296246229896336e-05   1.217053202064294e-05
-0.00010129721312654648   1.4296246229896336e-05   1.217053202064294e-05
-7.508747680077231e-05   5.987989018552116e-06   -2.652740752884079e-05
-7.508747680077231e-05   5.987989018552116e-06   -2.652740752884079e-05
-7.508747680077231e-05   5.987989018552116e-06   -2.652740752884079e-05
-7.508747680077231e-05   5.987989018552116e-06   -2.652740752884079e-05
-5.6067336866098943e-05   0.0   -5.1992183816655886e-05
-5.6067336866098943e-05   0.0   -5.1992183816655886e-05
-5.6067336866098943e-05   0.0   -5.1992183816655886e-05
-5.6067336866098943e-05   0.0   -5.1992183816655886e-05
-2.553468900691616e-05   3.578784418787614e-06   1.042833266587933e-06
-2.553468900691616e-05   3.578784418787614e-06   1.042833266587933e-06
-2.553468900691616e-05   3.578784418787614e-06   1.042833266587933e-06
-2.553468900691616e-05   3.578784418787614e-06   1.042833266587933e-06
-2.4557789629965112e-05   0.0   -5.1541568491513345e-05
-2.4557789629965112e-05   0.0   -5.1541568491513345e-05
-2.4557789629965112e-05   0.0   -5.1541568491513345e-05
-2.4557789629965112e-05   0.0   -5.1541568491513345e-05
-5.495745030111082e-05   5.095857676049246e-06   -3.932981978566741e-06
-5.495745030111082e-05   5.095857676049246e-06   -3.932981978566741e-06
-5.495745030111082e-05   5.095857676049246e-06   -3.932981978566741e-06
-5.495745030111082e-05   5.095857676049246e-06   -3.932981978566741e-06
-4.031256324803196e-05   3.755127709521188e-07   -2.550892012397303e-05
-4.031256324803196e-05   3.755127709521188e-07   -2.550892012397303e-05
-4.031256324803196e-05   3.755127709521188e-07   -2.550892012397303e-05
-4.031256324803196e-05   3.755127709521188e-07   -2.550892012397303e-05
-5.495745030111077e-05   0.0   -5.459908309714285e-05
-5.495745030111077e-05   0.0   -5.459908309714285e-05
-5.495745030111077e-05   0.0   -5.459908309714285e-05
-5.495745030111077e-05   0.0   -5.459908309714285e-05
-2.4557789629965112e-05   5.095857676049246e-06   -8.754673729371803e-07
-2.4557789629965112e-05   5.095857676049246e-06   -8.754673729371803e-07
-2.4557789629965112e-05   5.095857676049246e-06   -8.754673729371803e-07
-2.4557789629965112e-05   5.095857676049246e-06   -8.754673729371803e-07
-2.400866605139462e-05   0.0   -5.218831806579319e-05
-2.400866605139462e-05   0.0   -5.218831806579319e-05
-2.400866605139462e-05   0.0   -5.218831806579319e-05
-2.400866605139462e-05   0.0   -5.218831806579319e-05
-5.511129806235567e-05   6.2447522800459046e-06   -4.0974494155523105e-06
-5.511129806235567e-05   6.2447522800459046e-06   -4.0974494155523105e-06
-5.511129806235567e-05   6.2447522800459046e-06   -4.0974494155523105e-06
-5.511129806235567e-05   6.2447522800459046e-06   -4.0974494155523105e-06
-3.9483058176252635e-05   2.0089708594580924e-06   -2.7603047040037796e-05
-3.9483058176252635e-05   2.0089708594580924e-06   -2.7603047040037796e-05
-3.9483058176252635e-05   2.0089708594580924e-06   -2.7603047040037796e-05
-3.9483058176252635e-05   2.0089708594580924e-06   -2.7603047040037796e-05
-5.511129806235567e-05   0.0   -5.5935169433820726e-05
-5.511129806235567e-05   0.0   -5.5935169433820726e-05
-5.511129806235567e-05   0.0   -5.5935169433820726e-05
-5.511129806235567e-05   0.0   -5.5935169433820726e-05
-2.400866605139462e-05   6.2447522800459046e-06   -3.505980475247732e-07
-2.400866605139462e-05   6.2447522800459046e-06   -3.505980475247732e-07
-2.400866605139462e-05   6.2447522800459046e-06   -3.505980475247732e-07
-2.400866605139462e-05   6.2447522800459046e-06   -3.505980475247732e-07
-2.3508457373626612e-05   0.0   -5.19186090247367e-05
-2.3508457373626612e-05   0.0   -5.19186090247367e-05
-2.3508457373626612e-05   0.0   -5.19186090247367e-05
-2.3508457373626612e-05   0.0   -5.19186090247367e-05
-5.5081043023663784e-05   7.2667689802561345e-06   -3.6576943294948957e-06
-5.5081043023663784e-05   7.2667689802561345e-06   -3.6576943294948957e-06
-5.5081043023663784e-05   7.2667689802561345e-06   -3.6576943294948957e-06
-5.5081043023663784e-05   7.2667689802561345e-06   -3.6576943294948957e-06
-3.930987771799113e-05   3.347133674236658e-06   -2.7591188655337836e-05
-3.930987771799113e-05   3.347133674236658e-06   -2.7591188655337836e-05
-3.930987771799113e-05   3.347133674236658e-06   -2.7591188655337836e-05
-3.930987771799113e-05   3.347133674236658e-06   -2.7591188655337836e-05
-2.5534689006916205e-05   0.0   -4.9844913165383315e-05
-2.5534689006916205e-05   0.0   -4.9844913165383315e-05
-2.5534689006916205e-05   0.0   -4.9844913165383315e-05
-2.5534689006916205e-05   0.0   -4.9844913165383315e-05
3.311951520450024e-06   -4.588374977385328e-07   -2.042481451749339e-06
3.311951520450024e-06   -4.588374977385328e-07   -2.042481451749339e-06
3.311951520450024e-06   -4.588374977385328e-07   -2.042481451749339e-06
3.311951520450024e-06   -4.588374977385328e-07   -2.042481451749339e-06
3.936034150392646e-06   0.0   -5.099942451445827e-05
3.936034150392646e-06   0.0   -5.099942451445827e-05
3.936034150392646e-06   0.0   -5.099942451445827e-05
3.936034150392646e-06   0.0   -5.099942451445827e-05
-2.4557789629965068e-05   9.035732950914951e-07   -4.051862190917056e-06
-2.4557789629965068e-05   9.035732950914951e-07   -4.051862190917056e-06
-2.4557789629965068e-05   9.035732950914951e-07   -4.051862190917056e-06
-2.4557789629965068e-05   9.035732950914951e-07   -4.051862190917056e-06
-1.0799327428261736e-05   -9.620927908959406e-07   -2.5863232875496725e-05
-1.0799327428261736e-05   -9.620927908959406e-07   -2.5863232875496725e-05
-1.0799327428261736e-05   -9.620927908959406e-07   -2.5863232875496725e-05
-1.0799327428261736e-05   -9.620927908959406e-07   -2.5863232875496725e-05
-2.4557789629965112e-05   0.0   -5.1541568491513345e-05
-2.4557789629965112e-05   0.0   -5.1541568491513345e-05
-2.4557789629965112e-05   0.0   -5.1541568491513345e-05
-2.4557789629965112e-05   0.0   -5.1541568491513345e-05
3.936034150392653e-06   9.035732950914951e-07   -3.5097182138621613e-06
3.936034150392653e-06   9.035732950914951e-07   -3.5097182138621613e-06
3.936034150392653e-06   9.035732950914951e-07   -3.5097182138621613e-06
3.936034150392653e-06   9.035732950914951e-07   -3.5097182138621613e-06
4.428750660908273e-06   0.0   -5.0926374449467005e-05
4.428750660908273e-06   0.0   -5.0926374449467005e-05
4.428750660908273e-06   0.0   -5.0926374449467005e-05
4.428750660908273e-06   0.0   -5.0926374449467005e-05
-2.4008666051394537e-05   2.1032393605434742e-06   -4.792623545288351e-06
-2.4008666051394537e-05   2.1032393605434742e-06   -4.792623545288351e-06
-2.4008666051394537e-05   2.1032393605434742e-06   -4.792623545288351e-06
-2.4008666051394537e-05   2.1032393605434742e-06   -4.792623545288351e-06
-1.0064519484528398e-05   5.126617017052067e-07   -2.7078521228095662e-05
-1.0064519484528398e-05   5.126617017052067e-07   -2.7078521228095662e-05
-1.0064519484528398e-05   5.126617017052067e-07   -2.7078521228095662e-05
-1.0064519484528398e-05   5.126617017052067e-07   -2.7078521228095662e-05
-2.400866605139462e-05   0.0   -5.218831806579319e-05
-2.400866605139462e-05   0.0   -5.218831806579319e-05
-2.400866605139462e-05   0.0   -5.218831806579319e-05
-2.400866605139462e-05   0.0   -5.218831806579319e-05
4.42875066090828e-06   2.1032393605434878e-06   -3.530679928962271e-06
4.42875066090828e-06   2.1032393605434878e-06   -3.530679928962271e-06
4.42875066090828e-06   2.1032393605434878e-06   -3.530679928962271e-06
4.42875066090828e-06   2.1032393605434878e-06   -3.530679928962271e-06
5.0913239947718955e-06   0.0   -4.982299471603203e-05
5.0913239947718955e-06   0.0   -4.982299471603203e-05
5.0913239947718955e-06   0.0   -4.982299471603203e-05
5.0913239947718955e-06   0.0   -4.982299471603203e-05
-2.350845737362655e-05   3.492690514507701e-06   -4.252306744072511e-06
-2.350845737362655e-05   3.492690514507701e-06   -4.252306744072511e-06
-2.350845737362655e-05   3.492690514507701e-06   -4.252306744072511e-06
-2.350845737362655e-05   3.492690514507701e-06   -4.252306744072511e-06
-9.458671028311341e-06   1.971102791467563e-06   -2.6755664685773815e-05
-9.458671028311341e-06   1.971102791467563e-06   -2.6755664685773815e-05
-9.458671028311341e-06   1.971102791467563e-06   -2.6755664685773815e-05
-9.458671028311341e-06   1.971102791467563e-06   -2.6755664685773815e-05
3.31195152045003e-06   0.0   -5.012021566402644e-05
3.31195152045003e-06   0.0   -5.012021566402644e-05
3.31195152045003e-06   0.0   -5.012021566402644e-05
3.31195152045003e-06   0.0   -5.012021566402644e-05
3.462551490354788e-05   -4.061225247405648e-06   -3.6767850730671397e-07
3.462551490354788e-05   -4.061225247405648e-06   -3.6767850730671397e-07
3.462551490354788e-05   -4.061225247405648e-06   -3.6767850730671397e-07
3.462551490354788e-05   -4.061225247405648e-06   -3.6767850730671397e-07
3.468799026798566e-05   0.0   -5.283620722424096e-05
3.468799026798566e-05   0.0   -5.283620722424096e-05
3.468799026798566e-05   0.0   -5.283620722424096e-05
3.468799026798566e-05   0.0   -5.283620722424096e-05
3.93603415039266e-06   -3.0613045163041845e-06   2.538356815298828e-07
3.93603415039266e-06   -3.0613045163041845e-06   2.538356815298828e-07
3.93603415039266e-06   -3.0613045163041845e-06   2.538356815298828e-07
3.93603415039266e-06   -3.0613045163041845e-06   2.538356815298828e-07
1.8999970894217845e-05   -2.2633263001787664e-06   -2.533151248785399e-05
1.8999970894217845e-05   -2.2633263001787664e-06   -2.533151248785399e-05
1.8999970894217845e-05   -2.2633263001787664e-06   -2.533151248785399e-05
1.8999970894217845e-05   -2.2633263001787664e-06   -2.533151248785399e-05
3.93603415039266e-06   0.0   -5.099942451445845e-05
3.93603415039266e-06   0.0   -5.099942451445845e-05
3.93603415039266e-06   0.0   -5.099942451445845e-05
3.93603415039266e-06   0.0   -5.099942451445845e-05
3.468799026798566e-05   -3.0613045163041845e-06   -1.5829470282526247e-06
3.468799026798566e-05   -3.0613045163041845e-06   -1.5829470282526247e-06
3.468799026798566e-05   -3.0613045163041845e-06   -1.5829470282526247e-06
3.468799026798566e-05   -3.0613045163041845e-06   -1.5829470282526247e-06
3.4540206869977255e-05   0.0   -5.2081732620489114e-05
3.4540206869977255e-05   0.0   -5.2081732620489114e-05
3.4540206869977255e-05   0.0   -5.2081732620489114e-05
3.4540206869977255e-05   0.0   -5.2081732620489114e-05
4.42875066090828e-06   -1.9255969517033663e-06   -7.406141010188172e-07
4.42875066090828e-06   -1.9255969517033663e-06   -7.406141010188172e-07
4.42875066090828e-06   -1.9255969517033663e-06   -7.406141010188172e-07
4.42875066090828e-06   -1.9255969517033663e-06   -7.406141010188172e-07
1.923812051018496e-05   -9.019234216922241e-07   -2.603710130115327e-05
1.923812051018496e-05   -9.019234216922241e-07   -2.603710130115327e-05
1.923812051018496e-05   -9.019234216922241e-07   -2.603710130115327e-05
1.923812051018496e-05   -9.019234216922241e-07   -2.603710130115327e-05
4.428750660908277e-06   0.0   -5.092637444946705e-05
4.428750660908277e-06   0.0   -5.092637444946705e-05
4.428750660908277e-06   0.0   -5.092637444946705e-05
4.428750660908277e-06   0.0   -5.092637444946705e-05
3.4540206869977255e-05   -1.9255969517033663e-06   -1.89597227204084e-06
3.4540206869977255e-05   -1.9255969517033663e-06   -1.89597227204084e-06
3.4540206869977255e-05   -1.9255969517033663e-06   -1.89597227204084e-06
3.4540206869977255e-05   -1.9255969517033663e-06   -1.89597227204084e-06
3.5209896445072946e-05   0.0   -5.006269898399806e-05
3.5209896445072946e-05   0.0   -5.006269898399806e-05
3.5209896445072946e-05   0.0   -5.006269898399806e-05
3.5209896445072946e-05   0.0   -5.006269898399806e-05
5.091323994771905e-06   -3.9950711327656305e-07   3.7462603446962214e-07
5.091323994771905e-06   -3.9950711327656305e-07   3.7462603446962214e-07
5.091323994771905e-06   -3.9950711327656305e-07   3.7462603446962214e-07
5.091323994771905e-06   -3.9950711327656305e-07   3.7462603446962214e-07
1.98193235529906e-05   7.19729554557531e-07   -2.4843581896595313e-05
1.98193235529906e-05   7.19729554557531e-07   -2.4843581896595313e-05
1.98193235529906e-05   7.19729554557531e-07   -2.4843581896595313e-05
1.98193235529906e-05   7.19729554557531e-07   -2.4843581896595313e-05
3.462551490354788e-05   0.0   -5.255695081246983e-05
3.462551490354788e-05   0.0   -5.255695081246983e-05
3.462551490354788e-05   0.0   -5.255695081246983e-05
3.462551490354788e-05   0.0   -5.255695081246983e-05
7.817683139686542e-05   -1.029579633517774e-05   1.3851098875286525e-05
7.817683139686542e-05   -1.029579633517774e-05   1.3851098875286525e-05
7.817683139686542e-05   -1.029579633517774e-05   1.3851098875286525e-05
7.817683139686542e-05   -1.029579633517774e-05   1.3851098875286525e-05
7.342183676005477e-05   0.0   -5.8091970913344626e-05
7.342183676005477e-05   0.0   -5.8091970913344626e-05
7.342183676005477e-05   0.0   -5.8091970913344626e-05
7.342183676005477e-05   0.0   -5.8091970913344626e-05
3.468799026798566e-05   -8.759606148506105e-06   1.1720203595874212e-05
3.468799026798566e-05   -8.759606148506105e-06   1.1720203595874212e-05
3.468799026798566e-05   -8.759606148506105e-06   1.1720203595874212e-05
3.468799026798566e-05   -8.759606148506105e-06   1.1720203595874212e-05
5.4023675831801324e-05   -4.612516750729002e-06   -2.2994192649151457e-05
5.4023675831801324e-05   -4.612516750729002e-06   -2.2994192649151457e-05
5.4023675831801324e-05   -4.612516750729002e-06   -2.2994192649151457e-05
5.4023675831801324e-05   -4.612516750729002e-06   -2.2994192649151457e-05
3.4687990267985636e-05   0.0   -5.2836207224240914e-05
3.4687990267985636e-05   0.0   -5.2836207224240914e-05
3.4687990267985636e-05   0.0   -5.2836207224240914e-05
3.4687990267985636e-05   0.0   -5.2836207224240914e-05
7.342183676005452e-05   -8.759606148506065e-06   6.464439906770527e-06
7.342183676005452e-05   -8.759606148506065e-06   6.464439906770527e-06
7.342183676005452e-05   -8.759606148506065e-06   6.464439906770527e-06
7.342183676005452e-05   -8.759606148506065e-06   6.464439906770527e-06
7.122947103040696e-05   0.0   -5.6884215599556274e-05
7.122947103040696e-05   0.0   -5.6884215599556274e-05
7.122947103040696e-05   0.0   -5.6884215599556274e-05
7.122947103040696e-05   0.0   -5.6884215599556274e-05
3.4540206869977255e-05   -8.00413829844526e-06   9.067040980227058e-06
3.4540206869977255e-05   -8.00413829844526e-06   9.067040980227058e-06
3.4540206869977255e-05   -8.00413829844526e-06   9.067040980227058e-06
3.4540206869977255e-05   -8.00413829844526e-06   9.067040980227058e-06
5.295873064919629e-05   -3.3733403127627617e-06   -2.4408977443214157e-05
5.295873064919629e-05   -3.3733403127627617e-06   -2.4408977443214157e-05
5.295873064919629e-05   -3.3733403127627617e-06   -2.4408977443214157e-05
5.295873064919629e-05   -3.3733403127627617e-06   -2.4408977443214157e-05
3.4540206869977255e-05   0.0   -5.2081732620489114e-05
3.4540206869977255e-05   0.0   -5.2081732620489114e-05
3.4540206869977255e-05   0.0   -5.2081732620489114e-05
3.4540206869977255e-05   0.0   -5.2081732620489114e-05
7.122947103040671e-05   -8.004138298445233e-06   4.2645580011598845e-06
7.122947103040671e-05   -8.004138298445233e-06   4.2645580011598845e-06
7.122947103040671e-05   -8.004138298445233e-06   4.2645580011598845e-06
7.122947103040671e-05   -8.004138298445233e-06   4.2645580011598845e-06
6.796510978901001e-05   0.0   -5.379496724955787e-05
6.796510978901001e-05   0.0   -5.379496724955787e-05
6.796510978901001e-05   0.0   -5.379496724955787e-05
6.796510978901001e-05   0.0   -5.379496724955787e-05
3.5209896445072946e-05   -6.220447109266499e-06   4.529323255897226e-06
3.5209896445072946e-05   -6.220447109266499e-06   4.529323255897226e-06
3.5209896445072946e-05   -6.220447109266499e-06   4.529323255897226e-06
3.5209896445072946e-05   -6.220447109266499e-06   4.529323255897226e-06
5.125265832949369e-05   -1.4276955242240353e-06   -2.5084264169162788e-05
5.125265832949369e-05   -1.4276955242240353e-06   -2.5084264169162788e-05
5.125265832949369e-05   -1.4276955242240353e-06   -2.5084264169162788e-05
5.125265832949369e-05   -1.4276955242240353e-06   -2.5084264169162788e-05
-7.643886827158159e-05   9.759060494663585e-06   -5.0165597483217997e-05
-7.643886827158159e-05   9.759060494663585e-06   -5.0165597483217997e-05
-7.643886827158159e-05   9.759060494663585e-06   -5.0165597483217997e-05
-7.643886827158159e-05   9.759060494663585e-06   -5.0165597483217997e-05