<?xml version="1.0"?> 
<VTKFile type="UnstructuredGrid"> 
   <UnstructuredGrid> 
      <Piece NumberOfPoints="6000"  NumberOfCells="1500">  
          <Points>  
             <DataArray type="Float64" NumberOfComponents="3" format="ascii">   
-500.0   0.0   0.0
-450.0   0.0   0.0
-500.0   30.0   0.0
-500.0   0.0   16.666666666666668
-450.0   0.0   0.0
-450.0   30.0   0.0
-500.0   30.0   0.0
-450.0   30.0   16.666666666666668
-500.0   0.0   16.666666666666668
-500.0   30.0   16.666666666666668
-450.0   30.0   16.666666666666668
-500.0   30.0   0.0
-500.0   0.0   16.666666666666668
-450.0   30.0   16.666666666666668
-450.0   0.0   16.666666666666668
-450.0   0.0   0.0
-500.0   0.0   16.666666666666668
-450.0   30.0   16.666666666666668
-450.0   0.0   0.0
-500.0   30.0   0.0
-500.0   0.0   16.666666666666668
-450.0   0.0   16.666666666666668
-500.0   30.0   16.666666666666668
-500.0   0.0   33.333333333333336
-450.0   0.0   16.666666666666668
-450.0   30.0   16.666666666666668
-500.0   30.0   16.666666666666668
-450.0   30.0   33.333333333333336
-500.0   0.0   33.333333333333336
-500.0   30.0   33.333333333333336
-450.0   30.0   33.333333333333336
-500.0   30.0   16.666666666666668
-500.0   0.0   33.333333333333336
-450.0   30.0   33.333333333333336
-450.0   0.0   33.333333333333336
-450.0   0.0   16.666666666666668
-500.0   0.0   33.333333333333336
-450.0   30.0   33.333333333333336
-450.0   0.0   16.666666666666668
-500.0   30.0   16.666666666666668
-500.0   0.0   33.333333333333336
-450.0   0.0   33.333333333333336
-500.0   30.0   33.333333333333336
-500.0   0.0   50.0
-450.0   0.0   33.333333333333336
-450.0   30.0   33.333333333333336
-500.0   30.0   33.333333333333336
-450.0   30.0   50.0
-500.0   0.0   50.0
-500.0   30.0   50.0
-450.0   30.0   50.0
-500.0   30.0   33.333333333333336
-500.0   0.0   50.0
-450.0   30.0   50.0
-450.0   0.0   50.0
-450.0   0.0   33.333333333333336
-500.0   0.0   50.0
-450.0   30.0   50.0
-450.0   0.0   33.333333333333336
-500.0   30.0   33.333333333333336
-500.0   30.0   0.0
-450.0   30.0   0.0
-500.0   60.0   0.0
-500.0   30.0   16.666666666666668
-450.0   30.0   0.0
-450.0   60.0   0.0
-500.0   60.0   0.0
-450.0   60.0   16.666666666666668
-500.0   30.0   16.666666666666668
-500.0   60.0   16.666666666666668
-450.0   60.0   16.666666666666668
-500.0   60.0   0.0
-500.0   30.0   16.666666666666668
-450.0   60.0   16.666666666666668
-450.0   30.0   16.666666666666668
-450.0   30.0   0.0
-500.0   30.0   16.666666666666668
-450.0   60.0   16.666666666666668
-450.0   30.0   0.0
-500.0   60.0   0.0
-500.0   30.0   16.666666666666668
-450.0   30.0   16.666666666666668
-500.0   60.0   16.666666666666668
-500.0   30.0   33.333333333333336
-450.0   30.0   16.666666666666668
-450.0   60.0   16.666666666666668
-500.0   60.0   16.666666666666668
-450.0   60.0   33.333333333333336
-500.0   30.0   33.333333333333336
-500.0   60.0   33.333333333333336
-450.0   60.0   33.333333333333336
-500.0   60.0   16.666666666666668
-500.0   30.0   33.333333333333336
-450.0   60.0   33.333333333333336
-450.0   30.0   33.333333333333336
-450.0   30.0   16.666666666666668
-500.0   30.0   33.333333333333336
-450.0   60.0   33.333333333333336
-450.0   30.0   16.666666666666668
-500.0   60.0   16.666666666666668
-500.0   30.0   33.333333333333336
-450.0   30.0   33.333333333333336
-500.0   60.0   33.333333333333336
-500.0   30.0   50.0
-450.0   30.0   33.333333333333336
-450.0   60.0   33.333333333333336
-500.0   60.0   33.333333333333336
-450.0   60.0   50.0
-500.0   30.0   50.0
-500.0   60.0   50.0
-450.0   60.0   50.0
-500.0   60.0   33.333333333333336
-500.0   30.0   50.0
-450.0   60.0   50.0
-450.0   30.0   50.0
-450.0   30.0   33.333333333333336
-500.0   30.0   50.0
-450.0   60.0   50.0
-450.0   30.0   33.333333333333336
-500.0   60.0   33.333333333333336
-500.0   60.0   0.0
-450.0   60.0   0.0
-500.0   90.0   0.0
-500.0   60.0   16.666666666666668
-450.0   60.0   0.0
-450.0   90.0   0.0
-500.0   90.0   0.0
-450.0   90.0   16.666666666666668
-500.0   60.0   16.666666666666668
-500.0   90.0   16.666666666666668
-450.0   90.0   16.666666666666668
-500.0   90.0   0.0
-500.0   60.0   16.666666666666668
-450.0   90.0   16.666666666666668
-450.0   60.0   16.666666666666668
-450.0   60.0   0.0
-500.0   60.0   16.666666666666668
-450.0   90.0   16.666666666666668
-450.0   60.0   0.0
-500.0   90.0   0.0
-500.0   60.0   16.666666666666668
-450.0   60.0   16.666666666666668
-500.0   90.0   16.666666666666668
-500.0   60.0   33.333333333333336
-450.0   60.0   16.666666666666668
-450.0   90.0   16.666666666666668
-500.0   90.0   16.666666666666668
-450.0   90.0   33.333333333333336
-500.0   60.0   33.333333333333336
-500.0   90.0   33.333333333333336
-450.0   90.0   33.333333333333336
-500.0   90.0   16.666666666666668
-500.0   60.0   33.333333333333336
-450.0   90.0   33.333333333333336
-450.0   60.0   33.333333333333336
-450.0   60.0   16.666666666666668
-500.0   60.0   33.333333333333336
-450.0   90.0   33.333333333333336
-450.0   60.0   16.666666666666668
-500.0   90.0   16.666666666666668
-500.0   60.0   33.333333333333336
-450.0   60.0   33.333333333333336
-500.0   90.0   33.333333333333336
-500.0   60.0   50.0
-450.0   60.0   33.333333333333336
-450.0   90.0   33.333333333333336
-500.0   90.0   33.333333333333336
-450.0   90.0   50.0
-500.0   60.0   50.0
-500.0   90.0   50.0
-450.0   90.0   50.0
-500.0   90.0   33.333333333333336
-500.0   60.0   50.0
-450.0   90.0   50.0
-450.0   60.0   50.0
-450.0   60.0   33.333333333333336
-500.0   60.0   50.0
-450.0   90.0   50.0
-450.0   60.0   33.333333333333336
-500.0   90.0   33.333333333333336
-500.0   90.0   0.0
-450.0   90.0   0.0
-500.0   120.0   0.0
-500.0   90.0   16.666666666666668
-450.0   90.0   0.0
-450.0   120.0   0.0
-500.0   120.0   0.0
-450.0   120.0   16.666666666666668
-500.0   90.0   16.666666666666668
-500.0   120.0   16.666666666666668
-450.0   120.0   16.666666666666668
-500.0   120.0   0.0
-500.0   90.0   16.666666666666668
-450.0   120.0   16.666666666666668
-450.0   90.0   16.666666666666668
-450.0   90.0   0.0
-500.0   90.0   16.666666666666668
-450.0   120.0   16.666666666666668
-450.0   90.0   0.0
-500.0   120.0   0.0
-500.0   90.0   16.666666666666668
-450.0   90.0   16.666666666666668
-500.0   120.0   16.666666666666668
-500.0   90.0   33.333333333333336
-450.0   90.0   16.666666666666668
-450.0   120.0   16.666666666666668
-500.0   120.0   16.666666666666668
-450.0   120.0   33.333333333333336
-500.0   90.0   33.333333333333336
-500.0   120.0   33.333333333333336
-450.0   120.0   33.333333333333336
-500.0   120.0   16.666666666666668
-500.0   90.0   33.333333333333336
-450.0   120.0   33.333333333333336
-450.0   90.0   33.333333333333336
-450.0   90.0   16.666666666666668
-500.0   90.0   33.333333333333336
-450.0   120.0   33.333333333333336
-450.0   90.0   16.666666666666668
-500.0   120.0   16.666666666666668
-500.0   90.0   33.333333333333336
-450.0   90.0   33.333333333333336
-500.0   120.0   33.333333333333336
-500.0   90.0   50.0
-450.0   90.0   33.333333333333336
-450.0   120.0   33.333333333333336
-500.0   120.0   33.333333333333336
-450.0   120.0   50.0
-500.0   90.0   50.0
-500.0   120.0   50.0
-450.0   120.0   50.0
-500.0   120.0   33.333333333333336
-500.0   90.0   50.0
-450.0   120.0   50.0
-450.0   90.0   50.0
-450.0   90.0   33.333333333333336
-500.0   90.0   50.0
-450.0   120.0   50.0
-450.0   90.0   33.333333333333336
-500.0   120.0   33.333333333333336
-500.0   120.0   0.0
-450.0   120.0   0.0
-500.0   150.0   0.0
-500.0   120.0   16.666666666666668
-450.0   120.0   0.0
-450.0   150.0   0.0
-500.0   150.0   0.0
-450.0   150.0   16.666666666666668
-500.0   120.0   16.666666666666668
-500.0   150.0   16.666666666666668
-450.0   150.0   16.666666666666668
-500.0   150.0   0.0
-500.0   120.0   16.666666666666668
-450.0   150.0   16.666666666666668
-450.0   120.0   16.666666666666668
-450.0   120.0   0.0
-500.0   120.0   16.666666666666668
-450.0   150.0   16.666666666666668
-450.0   120.0   0.0
-500.0   150.0   0.0
-500.0   120.0   16.666666666666668
-450.0   120.0   16.666666666666668
-500.0   150.0   16.666666666666668
-500.0   120.0   33.333333333333336
-450.0   120.0   16.666666666666668
-450.0   150.0   16.666666666666668
-500.0   150.0   16.666666666666668
-450.0   150.0   33.333333333333336
-500.0   120.0   33.333333333333336
-500.0   150.0   33.333333333333336
-450.0   150.0   33.333333333333336
-500.0   150.0   16.666666666666668
-500.0   120.0   33.333333333333336
-450.0   150.0   33.333333333333336
-450.0   120.0   33.333333333333336
-450.0   120.0   16.666666666666668
-500.0   120.0   33.333333333333336
-450.0   150.0   33.333333333333336
-450.0   120.0   16.666666666666668
-500.0   150.0   16.666666666666668
-500.0   120.0   33.333333333333336
-450.0   120.0   33.333333333333336
-500.0   150.0   33.333333333333336
-500.0   120.0   50.0
-450.0   120.0   33.333333333333336
-450.0   150.0   33.333333333333336
-500.0   150.0   33.333333333333336
-450.0   150.0   50.0
-500.0   120.0   50.0
-500.0   150.0   50.0
-450.0   150.0   50.0
-500.0   150.0   33.333333333333336
-500.0   120.0   50.0
-450.0   150.0   50.0
-450.0   120.0   50.0
-450.0   120.0   33.333333333333336
-500.0   120.0   50.0
-450.0   150.0   50.0
-450.0   120.0   33.333333333333336
-500.0   150.0   33.333333333333336
-450.0   0.0   0.0
-400.0   0.0   0.0
-450.0   30.0   0.0
-450.0   0.0   16.666666666666668
-400.0   0.0   0.0
-400.0   30.0   0.0
-450.0   30.0   0.0
-400.0   30.0   16.666666666666668
-450.0   0.0   16.666666666666668
-450.0   30.0   16.666666666666668
-400.0   30.0   16.666666666666668
-450.0   30.0   0.0
-450.0   0.0   16.666666666666668
-400.0   30.0   16.666666666666668
-400.0   0.0   16.666666666666668
-400.0   0.0   0.0
-450.0   0.0   16.666666666666668
-400.0   30.0   16.666666666666668
-400.0   0.0   0.0
-450.0   30.0   0.0
-450.0   0.0   16.666666666666668
-400.0   0.0   16.666666666666668
-450.0   30.0   16.666666666666668
[...]
          <PointData>  
             <DataArray type="Float64" NumberOfComponents="3" Name="Strains" format="ascii">   
-2.552875863857162e-05   0.0   -1.6945770546445228e-05
-2.552875863857162e-05   0.0   -1.6945770546445228e-05
-2.552875863857162e-05   0.0   -1.6945770546445228e-05
-2.552875863857162e-05   0.0   -1.6945770546445228e-05
-1.6225530274966527e-05   2.802726497520093e-06   2.4124595807528383e-07
-1.6225530274966527e-05   2.802726497520093e-06   2.4124595807528383e-07
-1.6225530274966527e-05   2.802726497520093e-06   2.4124595807528383e-07
-1.6225530274966527e-05   2.802726497520093e-06   2.4124595807528383e-07
-1.589160342922191e-05   0.0   -1.601864617048386e-05
-1.589160342922191e-05   0.0   -1.601864617048386e-05
-1.589160342922191e-05   0.0   -1.601864617048386e-05
-1.589160342922191e-05   0.0   -1.601864617048386e-05
-2.6700930800831046e-05   3.37551919011249e-06   -2.8412065202726802e-08
-2.6700930800831046e-05   3.37551919011249e-06   -2.8412065202726802e-08
-2.6700930800831046e-05   3.37551919011249e-06   -2.8412065202726802e-08
-2.6700930800831046e-05   3.37551919011249e-06   -2.8412065202726802e-08
-2.071018103389673e-05   7.726036466344725e-07   -8.451245684006435e-06
-2.071018103389673e-05   7.726036466344725e-07   -8.451245684006435e-06
-2.071018103389673e-05   7.726036466344725e-07   -8.451245684006435e-06
-2.071018103389673e-05   7.726036466344725e-07   -8.451245684006435e-06
-2.6700930800831094e-05   0.0   -1.8043957684551358e-05
-2.6700930800831094e-05   0.0   -1.8043957684551358e-05
-2.6700930800831094e-05   0.0   -1.8043957684551358e-05
-2.6700930800831094e-05   0.0   -1.8043957684551358e-05
-1.589160342922191e-05   3.3755191901124966e-06   1.996899448864773e-06
-1.589160342922191e-05   3.3755191901124966e-06   1.996899448864773e-06
-1.589160342922191e-05   3.3755191901124966e-06   1.996899448864773e-06
-1.589160342922191e-05   3.3755191901124966e-06   1.996899448864773e-06
-1.592232181139661e-05   0.0   -1.640693150301849e-05
-1.592232181139661e-05   0.0   -1.640693150301849e-05
-1.592232181139661e-05   0.0   -1.640693150301849e-05
-1.592232181139661e-05   0.0   -1.640693150301849e-05
-2.7517663368397937e-05   3.619657017501599e-06   7.468435481494998e-07
-2.7517663368397937e-05   3.619657017501599e-06   7.468435481494998e-07
-2.7517663368397937e-05   3.619657017501599e-06   7.468435481494998e-07
-2.7517663368397937e-05   3.619657017501599e-06   7.468435481494998e-07
-2.1311626306113816e-05   1.3641884846107223e-06   -8.243270435922836e-06
-2.1311626306113816e-05   1.3641884846107223e-06   -8.243270435922836e-06
-2.1311626306113816e-05   1.3641884846107223e-06   -8.243270435922836e-06
-2.1311626306113816e-05   1.3641884846107223e-06   -8.243270435922836e-06
-2.7517663368397984e-05   0.0   -1.8578725713519454e-05
-2.7517663368397984e-05   0.0   -1.8578725713519454e-05
-2.7517663368397984e-05   0.0   -1.8578725713519454e-05
-2.7517663368397984e-05   0.0   -1.8578725713519454e-05
-1.592232181139661e-05   3.619657017501609e-06   2.9186377586504606e-06
-1.592232181139661e-05   3.619657017501609e-06   2.9186377586504606e-06
-1.592232181139661e-05   3.619657017501609e-06   2.9186377586504606e-06
-1.592232181139661e-05   3.619657017501609e-06   2.9186377586504606e-06
-1.5898059456591003e-05   0.0   -1.650892857290256e-05
-1.5898059456591003e-05   0.0   -1.650892857290256e-05
-1.5898059456591003e-05   0.0   -1.650892857290256e-05
-1.5898059456591003e-05   0.0   -1.650892857290256e-05
-2.9291121793443333e-05   4.133826614414944e-06   3.3325460198690973e-06
-2.9291121793443333e-05   4.133826614414944e-06   3.3325460198690973e-06
-2.9291121793443333e-05   4.133826614414944e-06   3.3325460198690973e-06
-2.9291121793443333e-05   4.133826614414944e-06   3.3325460198690973e-06
-2.1707861412494457e-05   1.7248309505140777e-06   -7.860823883371837e-06
-2.1707861412494457e-05   1.7248309505140777e-06   -7.860823883371837e-06
-2.1707861412494457e-05   1.7248309505140777e-06   -7.860823883371837e-06
-2.1707861412494457e-05   1.7248309505140777e-06   -7.860823883371837e-06
-1.6225530274966554e-05   0.0   -1.5264134647933172e-05
-1.6225530274966554e-05   0.0   -1.5264134647933172e-05
-1.6225530274966554e-05   0.0   -1.5264134647933172e-05
-1.6225530274966554e-05   0.0   -1.5264134647933172e-05
-7.405498406541236e-06   1.0230348251086072e-06   4.973936117418013e-08
-7.405498406541236e-06   1.0230348251086072e-06   4.973936117418013e-08
-7.405498406541236e-06   1.0230348251086072e-06   4.973936117418013e-08
-7.405498406541236e-06   1.0230348251086072e-06   4.973936117418013e-08
-7.108762416088863e-06   0.0   -1.5139740745717235e-05
-7.108762416088863e-06   0.0   -1.5139740745717235e-05
-7.108762416088863e-06   0.0   -1.5139740745717235e-05
-7.108762416088863e-06   0.0   -1.5139740745717235e-05
-1.589160342922191e-05   1.4648423746110425e-06   -1.380577815262119e-06
-1.589160342922191e-05   1.4648423746110425e-06   -1.380577815262119e-06
-1.589160342922191e-05   1.4648423746110425e-06   -1.380577815262119e-06
-1.589160342922191e-05   1.4648423746110425e-06   -1.380577815262119e-06
-1.1667146345527688e-05   1.0366158517994733e-07   -7.604631147760442e-06
-1.1667146345527688e-05   1.0366158517994733e-07   -7.604631147760442e-06
-1.1667146345527688e-05   1.0366158517994733e-07   -7.604631147760442e-06
-1.1667146345527688e-05   1.0366158517994733e-07   -7.604631147760442e-06
-1.5891603429221895e-05   0.0   -1.6018646170483848e-05
-1.5891603429221895e-05   0.0   -1.6018646170483848e-05
-1.5891603429221895e-05   0.0   -1.6018646170483848e-05
-1.5891603429221895e-05   0.0   -1.6018646170483848e-05
-7.108762416088863e-06   1.4648423746110425e-06   -5.016723904954929e-07
-7.108762416088863e-06   1.4648423746110425e-06   -5.016723904954929e-07
-7.108762416088863e-06   1.4648423746110425e-06   -5.016723904954929e-07
-7.108762416088863e-06   1.4648423746110425e-06   -5.016723904954929e-07
-6.9363431323878455e-06   0.0   -1.5326869693171295e-05
-6.9363431323878455e-06   0.0   -1.5326869693171295e-05
-6.9363431323878455e-06   0.0   -1.5326869693171295e-05
-6.9363431323878455e-06   0.0   -1.5326869693171295e-05
-1.592232181139661e-05   1.80010301641199e-06   -1.4303003713372168e-06
-1.592232181139661e-05   1.80010301641199e-06   -1.4303003713372168e-06
-1.592232181139661e-05   1.80010301641199e-06   -1.4303003713372168e-06
-1.592232181139661e-05   1.80010301641199e-06   -1.4303003713372168e-06
-1.1413973280804855e-05   5.764803977604707e-07   -8.210041017799164e-06
-1.1413973280804855e-05   5.764803977604707e-07   -8.210041017799164e-06
-1.1413973280804855e-05   5.764803977604707e-07   -8.210041017799164e-06
-1.1413973280804855e-05   5.764803977604707e-07   -8.210041017799164e-06
-1.592232181139661e-05   0.0   -1.640693150301849e-05
-1.592232181139661e-05   0.0   -1.640693150301849e-05
-1.592232181139661e-05   0.0   -1.640693150301849e-05
-1.592232181139661e-05   0.0   -1.640693150301849e-05
-6.9363431323878455e-06   1.80010301641199e-06   -3.502385614900222e-07
-6.9363431323878455e-06   1.80010301641199e-06   -3.502385614900222e-07
-6.9363431323878455e-06   1.80010301641199e-06   -3.502385614900222e-07
-6.9363431323878455e-06   1.80010301641199e-06   -3.502385614900222e-07
-6.777012834806885e-06   0.0   -1.5250144078620026e-05
-6.777012834806885e-06   0.0   -1.5250144078620026e-05
-6.777012834806885e-06   0.0   -1.5250144078620026e-05
-6.777012834806885e-06   0.0   -1.5250144078620026e-05
-1.5898059456590963e-05   2.0979741571375254e-06   -1.3071842032623536e-06
-1.5898059456590963e-05   2.0979741571375254e-06   -1.3071842032623536e-06
-1.5898059456590963e-05   2.0979741571375254e-06   -1.3071842032623536e-06
-1.5898059456590963e-05   2.0979741571375254e-06   -1.3071842032623536e-06
-1.1349667323101743e-05   9.639895203320408e-07   -8.207446976994484e-06
-1.1349667323101743e-05   9.639895203320408e-07   -8.207446976994484e-06
-1.1349667323101743e-05   9.639895203320408e-07   -8.207446976994484e-06
-1.1349667323101743e-05   9.639895203320408e-07   -8.207446976994484e-06
-7.405498406541249e-06   0.0   -1.4650313752868005e-05
-7.405498406541249e-06   0.0   -1.4650313752868005e-05
-7.405498406541249e-06   0.0   -1.4650313752868005e-05
-7.405498406541249e-06   0.0   -1.4650313752868005e-05
9.157255546273753e-07   -1.347500497905184e-07   -8.624571807945964e-07
9.157255546273753e-07   -1.347500497905184e-07   -8.624571807945964e-07
9.157255546273753e-07   -1.347500497905184e-07   -8.624571807945964e-07
9.157255546273753e-07   -1.347500497905184e-07   -8.624571807945964e-07
1.1116672078371127e-06   0.0   -1.4982953037877e-05
1.1116672078371127e-06   0.0   -1.4982953037877e-05
1.1116672078371127e-06   0.0   -1.4982953037877e-05
1.1116672078371127e-06   0.0   -1.4982953037877e-05
-7.108762416088851e-06   2.6131284640030497e-07   -1.4390247058406017e-06
-7.108762416088851e-06   2.6131284640030497e-07   -1.4390247058406017e-06
-7.108762416088851e-06   2.6131284640030497e-07   -1.4390247058406017e-06
-7.108762416088851e-06   2.6131284640030497e-07   -1.4390247058406017e-06
-3.1469155993520555e-06   -2.771994041742055e-07   -7.718995383390525e-06
-3.1469155993520555e-06   -2.771994041742055e-07   -7.718995383390525e-06
-3.1469155993520555e-06   -2.771994041742055e-07   -7.718995383390525e-06
-3.1469155993520555e-06   -2.771994041742055e-07   -7.718995383390525e-06
-7.108762416088863e-06   0.0   -1.5139740745717235e-05
-7.108762416088863e-06   0.0   -1.5139740745717235e-05
-7.108762416088863e-06   0.0   -1.5139740745717235e-05
-7.108762416088863e-06   0.0   -1.5139740745717235e-05
1.1116672078371146e-06   2.6131284640030497e-07   -1.2822369980004194e-06
1.1116672078371146e-06   2.6131284640030497e-07   -1.2822369980004194e-06
1.1116672078371146e-06   2.6131284640030497e-07   -1.2822369980004194e-06
1.1116672078371146e-06   2.6131284640030497e-07   -1.2822369980004194e-06
1.2681802743197784e-06   0.0   -1.4960434973859786e-05
1.2681802743197784e-06   0.0   -1.4960434973859786e-05
1.2681802743197784e-06   0.0   -1.4960434973859786e-05
1.2681802743197784e-06   0.0   -1.4960434973859786e-05
-6.936343132387822e-06   6.10724532185803e-07   -1.6526640153252487e-06
-6.936343132387822e-06   6.10724532185803e-07   -1.6526640153252487e-06
-6.936343132387822e-06   6.10724532185803e-07   -1.6526640153252487e-06
-6.936343132387822e-06   6.10724532185803e-07   -1.6526640153252487e-06
-2.920291070884536e-06   1.4942147654785263e-07   -8.069302284447968e-06
-2.920291070884536e-06   1.4942147654785263e-07   -8.069302284447968e-06
-2.920291070884536e-06   1.4942147654785263e-07   -8.069302284447968e-06
-2.920291070884536e-06   1.4942147654785263e-07   -8.069302284447968e-06
-6.9363431323878455e-06   0.0   -1.5326869693171295e-05
-6.9363431323878455e-06   0.0   -1.5326869693171295e-05
-6.9363431323878455e-06   0.0   -1.5326869693171295e-05
-6.9363431323878455e-06   0.0   -1.5326869693171295e-05
1.2681802743197808e-06   6.107245321858064e-07   -1.2862292960137703e-06
1.2681802743197808e-06   6.107245321858064e-07   -1.2862292960137703e-06
1.2681802743197808e-06   6.107245321858064e-07   -1.2862292960137703e-06
1.2681802743197808e-06   6.107245321858064e-07   -1.2862292960137703e-06
1.474089186378015e-06   0.0   -1.4641387646053155e-05
1.474089186378015e-06   0.0   -1.4641387646053155e-05
1.474089186378015e-06   0.0   -1.4641387646053155e-05
1.474089186378015e-06   0.0   -1.4641387646053155e-05
-6.777012834806867e-06   1.0145940542780972e-06   -1.498307376645192e-06
-6.777012834806867e-06   1.0145940542780972e-06   -1.498307376645192e-06
-6.777012834806867e-06   1.0145940542780972e-06   -1.498307376645192e-06
-6.777012834806867e-06   1.0145940542780972e-06   -1.498307376645192e-06
-2.7311269730049093e-06   5.712350392650962e-07   -7.975435070640665e-06
-2.7311269730049093e-06   5.712350392650962e-07   -7.975435070640665e-06
-2.7311269730049093e-06   5.712350392650962e-07   -7.975435070640665e-06
-2.7311269730049093e-06   5.712350392650962e-07   -7.975435070640665e-06
9.157255546273769e-07   0.0   -1.4731163782742317e-05
9.157255546273769e-07   0.0   -1.4731163782742317e-05
9.157255546273769e-07   0.0   -1.4731163782742317e-05
9.157255546273769e-07   0.0   -1.4731163782742317e-05
9.960283126515067e-06   -1.1683137618330702e-06   -3.578894200293325e-07
9.960283126515067e-06   -1.1683137618330702e-06   -3.578894200293325e-07
9.960283126515067e-06   -1.1683137618330702e-06   -3.578894200293325e-07
9.960283126515067e-06   -1.1683137618330702e-06   -3.578894200293325e-07
9.99555269065783e-06   0.0   -1.550902100300075e-05
9.99555269065783e-06   0.0   -1.550902100300075e-05
9.99555269065783e-06   0.0   -1.550902100300075e-05
9.99555269065783e-06   0.0   -1.550902100300075e-05
1.1116672078371166e-06   -8.767799418728283e-07   -1.7647723317586715e-07
1.1116672078371166e-06   -8.767799418728283e-07   -1.7647723317586715e-07
1.1116672078371166e-06   -8.767799418728283e-07   -1.7647723317586715e-07
1.1116672078371166e-06   -8.767799418728283e-07   -1.7647723317586715e-07
5.455639122642603e-06   -6.482143502153604e-07   -7.553569779512819e-06
5.455639122642603e-06   -6.482143502153604e-07   -7.553569779512819e-06
5.455639122642603e-06   -6.482143502153604e-07   -7.553569779512819e-06
5.455639122642603e-06   -6.482143502153604e-07   -7.553569779512819e-06
1.1116672078371166e-06   0.0   -1.4982953037877052e-05
1.1116672078371166e-06   0.0   -1.4982953037877052e-05
1.1116672078371166e-06   0.0   -1.4982953037877052e-05
1.1116672078371166e-06   0.0   -1.4982953037877052e-05
9.99555269065783e-06   -8.767799418728283e-07   -7.025451982995662e-07
9.99555269065783e-06   -8.767799418728283e-07   -7.025451982995662e-07
9.99555269065783e-06   -8.767799418728283e-07   -7.025451982995662e-07
9.99555269065783e-06   -8.767799418728283e-07   -7.025451982995662e-07
9.967874774132864e-06   0.0   -1.52876838303146e-05
9.967874774132864e-06   0.0   -1.52876838303146e-05
9.967874774132864e-06   0.0   -1.52876838303146e-05
9.967874774132864e-06   0.0   -1.52876838303146e-05
1.2681802743197808e-06   -5.454147607579844e-07   -4.609441408380086e-07
1.2681802743197808e-06   -5.454147607579844e-07   -4.609441408380086e-07
1.2681802743197808e-06   -5.454147607579844e-07   -4.609441408380086e-07
1.2681802743197808e-06   -5.454147607579844e-07   -4.609441408380086e-07
5.53977099098499e-06   -2.539423270312904e-07   -7.755145462182697e-06
5.53977099098499e-06   -2.539423270312904e-07   -7.755145462182697e-06
5.53977099098499e-06   -2.539423270312904e-07   -7.755145462182697e-06
5.53977099098499e-06   -2.539423270312904e-07   -7.755145462182697e-06
1.2681802743197795e-06   0.0   -1.4960434973859798e-05
1.2681802743197795e-06   0.0   -1.4960434973859798e-05
1.2681802743197795e-06   0.0   -1.4960434973859798e-05
1.2681802743197795e-06   0.0   -1.4960434973859798e-05
9.967874774132864e-06   -5.454147607579844e-07   -7.881929972927992e-07
9.967874774132864e-06   -5.454147607579844e-07   -7.881929972927992e-07
9.967874774132864e-06   -5.454147607579844e-07   -7.881929972927992e-07
9.967874774132864e-06   -5.454147607579844e-07   -7.881929972927992e-07
1.0175461959669397e-05   0.0   -1.470202126999486e-05
1.0175461959669397e-05   0.0   -1.470202126999486e-05
1.0175461959669397e-05   0.0   -1.470202126999486e-05
1.0175461959669397e-05   0.0   -1.470202126999486e-05
1.4740891863780178e-06   -1.0105603990280166e-07   -1.3909969056755147e-07
1.4740891863780178e-06   -1.0105603990280166e-07   -1.3909969056755147e-07
1.4740891863780178e-06   -1.0105603990280166e-07   -1.3909969056755147e-07
1.4740891863780178e-06   -1.0105603990280166e-07   -1.3909969056755147e-07
5.721821116994584e-06   2.1534475322079386e-07   -7.408493384135978e-06
5.721821116994584e-06   2.1534475322079386e-07   -7.408493384135978e-06
5.721821116994584e-06   2.1534475322079386e-07   -7.408493384135978e-06
5.721821116994584e-06   2.1534475322079386e-07   -7.408493384135978e-06
9.960283126515067e-06   0.0   -1.543215203984216e-05
9.960283126515067e-06   0.0   -1.543215203984216e-05
9.960283126515067e-06   0.0   -1.543215203984216e-05
9.960283126515067e-06   0.0   -1.543215203984216e-05
2.2579600095543354e-05   -2.973482273202185e-06   3.815953544617137e-06
2.2579600095543354e-05   -2.973482273202185e-06   3.815953544617137e-06
2.2579600095543354e-05   -2.973482273202185e-06   3.815953544617137e-06
2.2579600095543354e-05   -2.973482273202185e-06   3.815953544617137e-06
2.122869557556834e-05   0.0   -1.702143278798088e-05
2.122869557556834e-05   0.0   -1.702143278798088e-05
2.122869557556834e-05   0.0   -1.702143278798088e-05
2.122869557556834e-05   0.0   -1.702143278798088e-05
9.99555269065783e-06   -2.520686308300219e-06   3.2128838051834324e-06
9.99555269065783e-06   -2.520686308300219e-06   3.2128838051834324e-06
9.99555269065783e-06   -2.520686308300219e-06   3.2128838051834324e-06
9.99555269065783e-06   -2.520686308300219e-06   3.2128838051834324e-06
1.5594489351041703e-05   -1.3244006234489366e-06   -6.83644870636712e-06
1.5594489351041703e-05   -1.3244006234489366e-06   -6.83644870636712e-06
1.5594489351041703e-05   -1.3244006234489366e-06   -6.83644870636712e-06
1.5594489351041703e-05   -1.3244006234489366e-06   -6.83644870636712e-06
9.995552690657819e-06   0.0   -1.5509021003000737e-05
9.995552690657819e-06   0.0   -1.5509021003000737e-05
9.995552690657819e-06   0.0   -1.5509021003000737e-05
9.995552690657819e-06   0.0   -1.5509021003000737e-05
2.1228695575568265e-05   -2.520686308300209e-06   1.7004720202032928e-06
2.1228695575568265e-05   -2.520686308300209e-06   1.7004720202032928e-06
2.1228695575568265e-05   -2.520686308300209e-06   1.7004720202032928e-06
2.1228695575568265e-05   -2.520686308300209e-06   1.7004720202032928e-06
2.061257427058542e-05   0.0   -1.6667713757683597e-05
2.061257427058542e-05   0.0   -1.6667713757683597e-05
2.061257427058542e-05   0.0   -1.6667713757683597e-05
2.061257427058542e-05   0.0   -1.6667713757683597e-05
9.967874774132864e-06   -2.3000498789483244e-06   2.4534819971063222e-06
9.967874774132864e-06   -2.3000498789483244e-06   2.4534819971063222e-06
9.967874774132864e-06   -2.3000498789483244e-06   2.4534819971063222e-06
9.967874774132864e-06   -2.3000498789483244e-06   2.4534819971063222e-06
1.5304063480621616e-05   -9.655772955690402e-07   -7.240849397069167e-06
1.5304063480621616e-05   -9.655772955690402e-07   -7.240849397069167e-06
1.5304063480621616e-05   -9.655772955690402e-07   -7.240849397069167e-06
1.5304063480621616e-05   -9.655772955690402e-07   -7.240849397069167e-06
9.967874774132864e-06   0.0   -1.52876838303146e-05
9.967874774132864e-06   0.0   -1.52876838303146e-05
9.967874774132864e-06   0.0   -1.52876838303146e-05
9.967874774132864e-06   0.0   -1.52876838303146e-05
2.0612574270585348e-05   -2.3000498789483176e-06   1.073452069737318e-06
2.0612574270585348e-05   -2.3000498789483176e-06   1.073452069737318e-06
2.0612574270585348e-05   -2.3000498789483176e-06   1.073452069737318e-06
2.0612574270585348e-05   -2.3000498789483176e-06   1.073452069737318e-06
1.9684766826099018e-05   0.0   -1.576807343409386e-05
1.9684766826099018e-05   0.0   -1.576807343409386e-05
1.9684766826099018e-05   0.0   -1.576807343409386e-05
1.9684766826099018e-05   0.0   -1.576807343409386e-05
1.0175461959669397e-05   -1.7767536068317145e-06   1.1468201740545662e-06
1.0175461959669397e-05   -1.7767536068317145e-06   1.1468201740545662e-06
1.0175461959669397e-05   -1.7767536068317145e-06   1.1468201740545662e-06
1.0175461959669397e-05   -1.7767536068317145e-06   1.1468201740545662e-06
1.4826320800115957e-05   -4.0032466981607286e-07   -7.430468588899081e-06
1.4826320800115957e-05   -4.0032466981607286e-07   -7.430468588899081e-06
1.4826320800115957e-05   -4.0032466981607286e-07   -7.430468588899081e-06
1.4826320800115957e-05   -4.0032466981607286e-07   -7.430468588899081e-06
-2.2008279084304732e-05   2.8027264975200894e-06   -1.4567431128886776e-05
-2.2008279084304732e-05   2.8027264975200894e-06   -1.4567431128886776e-05
-2.2008279084304732e-05   2.8027264975200894e-06   -1.4567431128886776e-05