<?xml version="1.0"?> 
<VTKFile type="UnstructuredGrid"> 
   <UnstructuredGrid> 
      <Piece NumberOfPoints="6000"  NumberOfCells="1500">  
          <Points>  
             <DataArray type="Float64" NumberOfComponents="3" format="ascii">   
-500.0   0.0   0.0
-450.0   0.0   0.0
-500.0   30.0   0.0
-500.0   0.0   16.666666666666668
-450.0   0.0   0.0
-450.0   30.0   0.0
-500.0   30.0   0.0
-450.0   30.0   16.666666666666668
-500.0   0.0   16.666666666666668
-500.0   30.0   16.666666666666668
-450.0   30.0   16.666666666666668
-500.0   30.0   0.0
-500.0   0.0   16.666666666666668
-450.0   30.0   16.666666666666668
-450.0   0.0   16.666666666666668
-450.0   0.0   0.0
-500.0   0.0   16.666666666666668
-450.0   30.0   16.666666666666668
-450.0   0.0   0.0
-500.0   30.0   0.0
-500.0   0.0   16.666666666666668
-450.0   0.0   16.666666666666668
-500.0   30.0   16.666666666666668
-500.0   0.0   33.333333333333336
-450.0   0.0   16.666666666666668
-450.0   30.0   16.666666666666668
-500.0   30.0   16.666666666666668
-450.0   30.0   33.333333333333336
-500.0   0.0   33.333333333333336
-500.0   30.0   33.333333333333336
-450.0   30.0   33.333333333333336
-500.0   30.0   16.666666666666668
-500.0   0.0   33.333333333333336
-450.0   30.0   33.333333333333336
-450.0   0.0   33.333333333333336
-450.0   0.0   16.666666666666668
-500.0   0.0   33.333333333333336
-450.0   30.0   33.333333333333336
-450.0   0.0   16.666666666666668
-500.0   30.0   16.666666666666668
-500.0   0.0   33.333333333333336
-450.0   0.0   33.333333333333336
-500.0   30.0   33.333333333333336
-500.0   0.0   50.0
-450.0   0.0   33.333333333333336
-450.0   30.0   33.333333333333336
-500.0   30.0   33.333333333333336
-450.0   30.0   50.0
-500.0   0.0   50.0
-500.0   30.0   50.0
-450.0   30.0   50.0
-500.0   30.0   33.333333333333336
-500.0   0.0   50.0
-450.0   30.0   50.0
-450.0   0.0   50.0
-450.0   0.0   33.333333333333336
-500.0   0.0   50.0
-450.0   30.0   50.0
-450.0   0.0   33.333333333333336
-500.0   30.0   33.333333333333336
-500.0   30.0   0.0
-450.0   30.0   0.0
-500.0   60.0   0.0
-500.0   30.0   16.666666666666668
-450.0   30.0   0.0
-450.0   60.0   0.0
-500.0   60.0   0.0
-450.0   60.0   16.666666666666668
-500.0   30.0   16.666666666666668
-500.0   60.0   16.666666666666668
-450.0   60.0   16.666666666666668
-500.0   60.0   0.0
-500.0   30.0   16.666666666666668
-450.0   60.0   16.666666666666668
-450.0   30.0   16.666666666666668
-450.0   30.0   0.0
-500.0   30.0   16.666666666666668
-450.0   60.0   16.666666666666668
-450.0   30.0   0.0
-500.0   60.0   0.0
-500.0   30.0   16.666666666666668
-450.0   30.0   16.666666666666668
-500.0   60.0   16.666666666666668
-500.0   30.0   33.333333333333336
-450.0   30.0   16.666666666666668
-450.0   60.0   16.666666666666668
-500.0   60.0   16.666666666666668
-450.0   60.0   33.333333333333336
-500.0   30.0   33.333333333333336
-500.0   60.0   33.333333333333336
-450.0   60.0   33.333333333333336
-500.0   60.0   16.666666666666668
-500.0   30.0   33.333333333333336
-450.0   60.0   33.333333333333336
-450.0   30.0   33.333333333333336
-450.0   30.0   16.666666666666668
-500.0   30.0   33.333333333333336
-450.0   60.0   33.333333333333336
-450.0   30.0   16.666666666666668
-500.0   60.0   16.666666666666668
-500.0   30.0   33.333333333333336
-450.0   30.0   33.333333333333336
-500.0   60.0   33.333333333333336
-500.0   30.0   50.0
-450.0   30.0   33.333333333333336
-450.0   60.0   33.333333333333336
-500.0   60.0   33.333333333333336
-450.0   60.0   50.0
-500.0   30.0   50.0
-500.0   60.0   50.0
-450.0   60.0   50.0
-500.0   60.0   33.333333333333336
-500.0   30.0   50.0
-450.0   60.0   50.0
-450.0   30.0   50.0
-450.0   30.0   33.333333333333336
-500.0   30.0   50.0
-450.0   60.0   50.0
-450.0   30.0   33.333333333333336
-500.0   60.0   33.333333333333336
-500.0   60.0   0.0
-450.0   60.0   0.0
-500.0   90.0   0.0
-500.0   60.0   16.666666666666668
-450.0   60.0   0.0
-450.0   90.0   0.0
-500.0   90.0   0.0
-450.0   90.0   16.666666666666668
-500.0   60.0   16.666666666666668
-500.0   90.0   16.666666666666668
-450.0   90.0   16.666666666666668
-500.0   90.0   0.0
-500.0   60.0   16.666666666666668
-450.0   90.0   16.666666666666668
-450.0   60.0   16.666666666666668
-450.0   60.0   0.0
-500.0   60.0   16.666666666666668
-450.0   90.0   16.666666666666668
-450.0   60.0   0.0
-500.0   90.0   0.0
-500.0   60.0   16.666666666666668
-450.0   60.0   16.666666666666668
-500.0   90.0   16.666666666666668
-500.0   60.0   33.333333333333336
-450.0   60.0   16.666666666666668
-450.0   90.0   16.666666666666668
-500.0   90.0   16.666666666666668
-450.0   90.0   33.333333333333336
-500.0   60.0   33.333333333333336
-500.0   90.0   33.333333333333336
-450.0   90.0   33.333333333333336
-500.0   90.0   16.666666666666668
-500.0   60.0   33.333333333333336
-450.0   90.0   33.333333333333336
-450.0   60.0   33.333333333333336
-450.0   60.0   16.666666666666668
-500.0   60.0   33.333333333333336
-450.0   90.0   33.333333333333336
-450.0   60.0   16.666666666666668
-500.0   90.0   16.666666666666668
-500.0   60.0   33.333333333333336
-450.0   60.0   33.333333333333336
-500.0   90.0   33.333333333333336
-500.0   60.0   50.0
-450.0   60.0   33.333333333333336
-450.0   90.0   33.333333333333336
-500.0   90.0   33.333333333333336
-450.0   90.0   50.0
-500.0   60.0   50.0
-500.0   90.0   50.0
-450.0   90.0   50.0
-500.0   90.0   33.333333333333336
-500.0   60.0   50.0
-450.0   90.0   50.0
-450.0   60.0   50.0
-450.0   60.0   33.333333333333336
-500.0   60.0   50.0
-450.0   90.0   50.0
-450.0   60.0   33.333333333333336
-500.0   90.0   33.333333333333336
-500.0   90.0   0.0
-450.0   90.0   0.0
-500.0   120.0   0.0
-500.0   90.0   16.666666666666668
-450.0   90.0   0.0
-450.0   120.0   0.0
-500.0   120.0   0.0
-450.0   120.0   16.666666666666668
-500.0   90.0   16.666666666666668
-500.0   120.0   16.666666666666668
-450.0   120.0   16.666666666666668
-500.0   120.0   0.0
-500.0   90.0   16.666666666666668
-450.0   120.0   16.666666666666668
-450.0   90.0   16.666666666666668
-450.0   90.0   0.0
-500.0   90.0   16.666666666666668
-450.0   120.0   16.666666666666668
-450.0   90.0   0.0
-500.0   120.0   0.0
-500.0   90.0   16.666666666666668
-450.0   90.0   16.666666666666668
-500.0   120.0   16.666666666666668
-500.0   90.0   33.333333333333336
-450.0   90.0   16.666666666666668
-450.0   120.0   16.666666666666668
-500.0   120.0   16.666666666666668
-450.0   120.0   33.333333333333336
-500.0   90.0   33.333333333333336
-500.0   120.0   33.333333333333336
-450.0   120.0   33.333333333333336
-500.0   120.0   16.666666666666668
-500.0   90.0   33.333333333333336
-450.0   120.0   33.333333333333336
-450.0   90.0   33.333333333333336
-450.0   90.0   16.666666666666668
-500.0   90.0   33.333333333333336
-450.0   120.0   33.333333333333336
-450.0   90.0   16.666666666666668
-500.0   120.0   16.666666666666668
-500.0   90.0   33.333333333333336
-450.0   90.0   33.333333333333336
-500.0   120.0   33.333333333333336
-500.0   90.0   50.0
-450.0   90.0   33.333333333333336
-450.0   120.0   33.333333333333336
-500.0   120.0   33.333333333333336
-450.0   120.0   50.0
-500.0   90.0   50.0
-500.0   120.0   50.0
-450.0   120.0   50.0
-500.0   120.0   33.333333333333336
-500.0   90.0   50.0
-450.0   120.0   50.0
-450.0   90.0   50.0
-450.0   90.0   33.333333333333336
-500.0   90.0   50.0
-450.0   120.0   50.0
-450.0   90.0   33.333333333333336
-500.0   120.0   33.333333333333336
-500.0   120.0   0.0
-450.0   120.0   0.0
-500.0   150.0   0.0
-500.0   120.0   16.666666666666668
-450.0   120.0   0.0
-450.0   150.0   0.0
-500.0   150.0   0.0
-450.0   150.0   16.666666666666668
-500.0   120.0   16.666666666666668
-500.0   150.0   16.666666666666668
-450.0   150.0   16.666666666666668
-500.0   150.0   0.0
-500.0   120.0   16.666666666666668
-450.0   150.0   16.666666666666668
-450.0   120.0   16.666666666666668
-450.0   120.0   0.0
-500.0   120.0   16.666666666666668
-450.0   150.0   16.666666666666668
-450.0   120.0   0.0
-500.0   150.0   0.0
-500.0   120.0   16.666666666666668
-450.0   120.0   16.666666666666668
-500.0   150.0   16.666666666666668
-500.0   120.0   33.333333333333336
-450.0   120.0   16.666666666666668
-450.0   150.0   16.666666666666668
-500.0   150.0   16.666666666666668
-450.0   150.0   33.333333333333336
-500.0   120.0   33.333333333333336
-500.0   150.0   33.333333333333336
-450.0   150.0   33.333333333333336
-500.0   150.0   16.666666666666668
-500.0   120.0   33.333333333333336
-450.0   150.0   33.333333333333336
-450.0   120.0   33.333333333333336
-450.0   120.0   16.666666666666668
-500.0   120.0   33.333333333333336
-450.0   150.0   33.333333333333336
-450.0   120.0   16.666666666666668
-500.0   150.0   16.666666666666668
-500.0   120.0   33.333333333333336
-450.0   120.0   33.333333333333336
-500.0   150.0   33.333333333333336
-500.0   120.0   50.0
-450.0   120.0   33.333333333333336
-450.0   150.0   33.333333333333336
-500.0   150.0   33.333333333333336
-450.0   150.0   50.0
-500.0   120.0   50.0
-500.0   150.0   50.0
-450.0   150.0   50.0
-500.0   150.0   33.333333333333336
-500.0   120.0   50.0
-450.0   150.0   50.0
-450.0   120.0   50.0
-450.0   120.0   33.333333333333336
-500.0   120.0   50.0
-450.0   150.0   50.0
-450.0   120.0   33.333333333333336
-500.0   150.0   33.333333333333336
-450.0   0.0   0.0
-400.0   0.0   0.0
-450.0   30.0   0.0
-450.0   0.0   16.666666666666668
-400.0   0.0   0.0
-400.0   30.0   0.0
-450.0   30.0   0.0
-400.0   30.0   16.666666666666668
-450.0   0.0   16.666666666666668
-450.0   30.0   16.666666666666668
-400.0   30.0   16.666666666666668
-450.0   30.0   0.0
-450.0   0.0   16.666666666666668
-400.0   30.0   16.666666666666668
-400.0   0.0   16.666666666666668
-400.0   0.0   0.0
-450.0   0.0   16.666666666666668
-400.0   30.0   16.666666666666668
-400.0   0.0   0.0
-450.0   30.0   0.0
-450.0   0.0   16.666666666666668
-400.0   0.0   16.666666666666668
-450.0   30.0   16.666666666666668
[...]
          <PointData>  
             <DataArray type="Float64" NumberOfComponents="3" Name="Strains" format="ascii">   
-7.559751794597473e-05   0.0   -4.9667250200052277e-05
-7.559751794597473e-05   0.0   -4.9667250200052277e-05
-7.559751794597473e-05   0.0   -4.9667250200052277e-05
-7.559751794597473e-05   0.0   -4.9667250200052277e-05
-4.809897554787255e-05   8.367793695234884e-06   1.1843300139255099e-06
-4.809897554787255e-05   8.367793695234884e-06   1.1843300139255099e-06
-4.809897554787255e-05   8.367793695234884e-06   1.1843300139255099e-06
-4.809897554787255e-05   8.367793695234884e-06   1.1843300139255099e-06
-4.714428092673307e-05   0.0   -4.688299571181108e-05
-4.714428092673307e-05   0.0   -4.688299571181108e-05
-4.714428092673307e-05   0.0   -4.688299571181108e-05
-4.714428092673307e-05   0.0   -4.688299571181108e-05
-7.911211086391973e-05   1.0045100136217938e-05   3.696607684361246e-07
-7.911211086391973e-05   1.0045100136217938e-05   3.696607684361246e-07
-7.911211086391973e-05   1.0045100136217938e-05   3.696607684361246e-07
-7.911211086391973e-05   1.0045100136217938e-05   3.696607684361246e-07
-6.13708994363538e-05   2.32021207353433e-06   -2.4564092106563578e-05
-6.13708994363538e-05   2.32021207353433e-06   -2.4564092106563578e-05
-6.13708994363538e-05   2.32021207353433e-06   -2.4564092106563578e-05
-6.13708994363538e-05   2.32021207353433e-06   -2.4564092106563578e-05
-7.911211086391986e-05   0.0   -5.291005579354185e-05
-7.911211086391986e-05   0.0   -5.291005579354185e-05
-7.911211086391986e-05   0.0   -5.291005579354185e-05
-7.911211086391986e-05   0.0   -5.291005579354185e-05
-4.714428092673307e-05   1.0045100136217951e-05   6.396720850166882e-06
-4.714428092673307e-05   1.0045100136217951e-05   6.396720850166882e-06
-4.714428092673307e-05   1.0045100136217951e-05   6.396720850166882e-06
-4.714428092673307e-05   1.0045100136217951e-05   6.396720850166882e-06
-4.7273502812163744e-05   0.0   -4.802952184766026e-05
-4.7273502812163744e-05   0.0   -4.802952184766026e-05
-4.7273502812163744e-05   0.0   -4.802952184766026e-05
-4.7273502812163744e-05   0.0   -4.802952184766026e-05
-8.157866113598408e-05   1.076271513860994e-05   2.6881129422078444e-06
-8.157866113598408e-05   1.076271513860994e-05   2.6881129422078444e-06
-8.157866113598408e-05   1.076271513860994e-05   2.6881129422078444e-06
-8.157866113598408e-05   1.076271513860994e-05   2.6881129422078444e-06
-6.319280683804169e-05   4.067111621567993e-06   -2.3937615444137572e-05
-6.319280683804169e-05   4.067111621567993e-06   -2.3937615444137572e-05
-6.319280683804169e-05   4.067111621567993e-06   -2.3937615444137572e-05
-6.319280683804169e-05   4.067111621567993e-06   -2.3937615444137572e-05
-8.157866113598421e-05   0.0   -5.4487150930826236e-05
-8.157866113598421e-05   0.0   -5.4487150930826236e-05
-8.157866113598421e-05   0.0   -5.4487150930826236e-05
-8.157866113598421e-05   0.0   -5.4487150930826236e-05
-4.7273502812163744e-05   1.0762715138609954e-05   9.145742025373866e-06
-4.7273502812163744e-05   1.0762715138609954e-05   9.145742025373866e-06
-4.7273502812163744e-05   1.0762715138609954e-05   9.145742025373866e-06
-4.7273502812163744e-05   1.0762715138609954e-05   9.145742025373866e-06
-4.724444631024908e-05   0.0   -4.8324722044892836e-05
-4.724444631024908e-05   0.0   -4.8324722044892836e-05
-4.724444631024908e-05   0.0   -4.8324722044892836e-05
-4.724444631024908e-05   0.0   -4.8324722044892836e-05
-8.689599485992557e-05   1.2263762306800042e-05   1.0402934820488176e-05
-8.689599485992557e-05   1.2263762306800042e-05   1.0402934820488176e-05
-8.689599485992557e-05   1.2263762306800042e-05   1.0402934820488176e-05
-8.689599485992557e-05   1.2263762306800042e-05   1.0402934820488176e-05
-6.441155372311654e-05   5.135357404944498e-06   -2.2794090799746877e-05
-6.441155372311654e-05   5.135357404944498e-06   -2.2794090799746877e-05
-6.441155372311654e-05   5.135357404944498e-06   -2.2794090799746877e-05
-6.441155372311654e-05   5.135357404944498e-06   -2.2794090799746877e-05
-4.809897554787263e-05   0.0   -4.464657398291134e-05
-4.809897554787263e-05   0.0   -4.464657398291134e-05
-4.809897554787263e-05   0.0   -4.464657398291134e-05
-4.809897554787263e-05   0.0   -4.464657398291134e-05
-2.1908850886841327e-05   3.0676345000518133e-06   8.442144855052241e-07
-2.1908850886841327e-05   3.0676345000518133e-06   8.442144855052241e-07
-2.1908850886841327e-05   3.0676345000518133e-06   8.442144855052241e-07
-2.1908850886841327e-05   3.0676345000518133e-06   8.442144855052241e-07
-2.106798418718988e-05   0.0   -4.426120294235412e-05
-2.106798418718988e-05   0.0   -4.426120294235412e-05
-2.106798418718988e-05   0.0   -4.426120294235412e-05
-2.106798418718988e-05   0.0   -4.426120294235412e-05
-4.714428092673307e-05   4.369654615761606e-06   -3.4225011459057748e-06
-4.714428092673307e-05   4.369654615761606e-06   -3.4225011459057748e-06
-4.714428092673307e-05   4.369654615761606e-06   -3.4225011459057748e-06
-4.714428092673307e-05   4.369654615761606e-06   -3.4225011459057748e-06
-3.45834798675312e-05   3.2114253379769095e-07   -2.192806232873038e-05
-3.45834798675312e-05   3.2114253379769095e-07   -2.192806232873038e-05
-3.45834798675312e-05   3.2114253379769095e-07   -2.192806232873038e-05
-3.45834798675312e-05   3.2114253379769095e-07   -2.192806232873038e-05
-4.714428092673303e-05   0.0   -4.688299571181104e-05
-4.714428092673303e-05   0.0   -4.688299571181104e-05
-4.714428092673303e-05   0.0   -4.688299571181104e-05
-4.714428092673303e-05   0.0   -4.688299571181104e-05
-2.106798418718988e-05   4.369654615761606e-06   -8.007083764488069e-07
-2.106798418718988e-05   4.369654615761606e-06   -8.007083764488069e-07
-2.106798418718988e-05   4.369654615761606e-06   -8.007083764488069e-07
-2.106798418718988e-05   4.369654615761606e-06   -8.007083764488069e-07
-2.0594201467593157e-05   0.0   -4.481602839126881e-05
-2.0594201467593157e-05   0.0   -4.481602839126881e-05
-2.0594201467593157e-05   0.0   -4.481602839126881e-05
-2.0594201467593157e-05   0.0   -4.481602839126881e-05
-4.7273502812163744e-05   5.3558224273190965e-06   -3.5640196067092904e-06
-4.7273502812163744e-05   5.3558224273190965e-06   -3.5640196067092904e-06
-4.7273502812163744e-05   5.3558224273190965e-06   -3.5640196067092904e-06
-4.7273502812163744e-05   5.3558224273190965e-06   -3.5640196067092904e-06
-3.386924119716304e-05   1.7224727671185592e-06   -2.372444583558994e-05
-3.386924119716304e-05   1.7224727671185592e-06   -2.372444583558994e-05
-3.386924119716304e-05   1.7224727671185592e-06   -2.372444583558994e-05
-3.386924119716304e-05   1.7224727671185592e-06   -2.372444583558994e-05
-4.7273502812163744e-05   0.0   -4.802952184766026e-05
-4.7273502812163744e-05   0.0   -4.802952184766026e-05
-4.7273502812163744e-05   0.0   -4.802952184766026e-05
-4.7273502812163744e-05   0.0   -4.802952184766026e-05
-2.0594201467593157e-05   5.3558224273190965e-06   -3.505261503178352e-07
-2.0594201467593157e-05   5.3558224273190965e-06   -3.505261503178352e-07
-2.0594201467593157e-05   5.3558224273190965e-06   -3.505261503178352e-07
-2.0594201467593157e-05   5.3558224273190965e-06   -3.505261503178352e-07
-2.0162168465862413e-05   0.0   -4.4584916035513365e-05
-2.0162168465862413e-05   0.0   -4.4584916035513365e-05
-2.0162168465862413e-05   0.0   -4.4584916035513365e-05
-2.0162168465862413e-05   0.0   -4.4584916035513365e-05
-4.7244446310248955e-05   6.233010015632373e-06   -3.187592304248381e-06
-4.7244446310248955e-05   6.233010015632373e-06   -3.187592304248381e-06
-4.7244446310248955e-05   6.233010015632373e-06   -3.187592304248381e-06
-4.7244446310248955e-05   6.233010015632373e-06   -3.187592304248381e-06
-3.371783563901307e-05   2.8705048434557137e-06   -2.371444031966904e-05
-3.371783563901307e-05   2.8705048434557137e-06   -2.371444031966904e-05
-3.371783563901307e-05   2.8705048434557137e-06   -2.371444031966904e-05
-3.371783563901307e-05   2.8705048434557137e-06   -2.371444031966904e-05
-2.1908850886841364e-05   0.0   -4.280599328288026e-05
-2.1908850886841364e-05   0.0   -4.280599328288026e-05
-2.1908850886841364e-05   0.0   -4.280599328288026e-05
-2.1908850886841364e-05   0.0   -4.280599328288026e-05
2.8327063272853215e-06   -3.9402000814892926e-07   -1.8064765975584311e-06
2.8327063272853215e-06   -3.9402000814892926e-07   -1.8064765975584311e-06
2.8327063272853215e-06   -3.9402000814892926e-07   -1.8064765975584311e-06
2.8327063272853215e-06   -3.9402000814892926e-07   -1.8064765975584311e-06
3.3711607618815088e-06   0.0   -4.3796130219142014e-05
3.3711607618815088e-06   0.0   -4.3796130219142014e-05
3.3711607618815088e-06   0.0   -4.3796130219142014e-05
3.3711607618815088e-06   0.0   -4.3796130219142014e-05
-2.106798418718984e-05   7.751212053532544e-07   -3.5292946939017813e-06
-2.106798418718984e-05   7.751212053532544e-07   -3.5292946939017813e-06
-2.106798418718984e-05   7.751212053532544e-07   -3.5292946939017813e-06
-2.106798418718984e-05   7.751212053532544e-07   -3.5292946939017813e-06
-9.268845062479891e-06   -8.251141135515885e-07   -2.2234385377075382e-05
-9.268845062479891e-06   -8.251141135515885e-07   -2.2234385377075382e-05
-9.268845062479891e-06   -8.251141135515885e-07   -2.2234385377075382e-05
-9.268845062479891e-06   -8.251141135515885e-07   -2.2234385377075382e-05
-2.106798418718988e-05   0.0   -4.426120294235412e-05
-2.106798418718988e-05   0.0   -4.426120294235412e-05
-2.106798418718988e-05   0.0   -4.426120294235412e-05
-2.106798418718988e-05   0.0   -4.426120294235412e-05
3.3711607618815147e-06   7.751212053532544e-07   -3.064221970689827e-06
3.3711607618815147e-06   7.751212053532544e-07   -3.064221970689827e-06
3.3711607618815147e-06   7.751212053532544e-07   -3.064221970689827e-06
3.3711607618815147e-06   7.751212053532544e-07   -3.064221970689827e-06
3.7966365835906763e-06   0.0   -4.373318655434556e-05
3.7966365835906763e-06   0.0   -4.373318655434556e-05
3.7966365835906763e-06   0.0   -4.373318655434556e-05
3.7966365835906763e-06   0.0   -4.373318655434556e-05
-2.0594201467593086e-05   1.8047363948719454e-06   -4.164631639295734e-06
-2.0594201467593086e-05   1.8047363948719454e-06   -4.164631639295734e-06
-2.0594201467593086e-05   1.8047363948719454e-06   -4.164631639295734e-06
-2.0594201467593086e-05   1.8047363948719454e-06   -4.164631639295734e-06
-8.635673801799582e-06   4.4001365667372874e-07   -2.3276677439366023e-05
-8.635673801799582e-06   4.4001365667372874e-07   -2.3276677439366023e-05
-8.635673801799582e-06   4.4001365667372874e-07   -2.3276677439366023e-05
-8.635673801799582e-06   4.4001365667372874e-07   -2.3276677439366023e-05
-2.0594201467593157e-05   0.0   -4.481602839126881e-05
-2.0594201467593157e-05   0.0   -4.481602839126881e-05
-2.0594201467593157e-05   0.0   -4.481602839126881e-05
-2.0594201467593157e-05   0.0   -4.481602839126881e-05
3.796636583590683e-06   1.8047363948719454e-06   -3.08178980237258e-06
3.796636583590683e-06   1.8047363948719454e-06   -3.08178980237258e-06
3.796636583590683e-06   1.8047363948719454e-06   -3.08178980237258e-06
3.796636583590683e-06   1.8047363948719454e-06   -3.08178980237258e-06
4.367877033093362e-06   0.0   -4.278667330203626e-05
4.367877033093362e-06   0.0   -4.278667330203626e-05
4.367877033093362e-06   0.0   -4.278667330203626e-05
4.367877033093362e-06   0.0   -4.278667330203626e-05
-2.0162168465862362e-05   2.9970712224617783e-06   -3.7015068705870648e-06
-2.0162168465862362e-05   2.9970712224617783e-06   -3.7015068705870648e-06
-2.0162168465862362e-05   2.9970712224617783e-06   -3.7015068705870648e-06
-2.0162168465862362e-05   2.9970712224617783e-06   -3.7015068705870648e-06
-8.113162217249878e-06   1.6911292410270613e-06   -2.299961876274708e-05
-8.113162217249878e-06   1.6911292410270613e-06   -2.299961876274708e-05
-8.113162217249878e-06   1.6911292410270613e-06   -2.299961876274708e-05
-8.113162217249878e-06   1.6911292410270613e-06   -2.299961876274708e-05
2.832706327285326e-06   0.0   -4.304240528776961e-05
2.832706327285326e-06   0.0   -4.304240528776961e-05
2.832706327285326e-06   0.0   -4.304240528776961e-05
2.832706327285326e-06   0.0   -4.304240528776961e-05
2.969246854814113e-05   -3.4826429502911435e-06   -3.6572068985125597e-07
2.969246854814113e-05   -3.4826429502911435e-06   -3.6572068985125597e-07
2.969246854814113e-05   -3.4826429502911435e-06   -3.6572068985125597e-07
2.969246854814113e-05   -3.4826429502911435e-06   -3.6572068985125597e-07
2.974950275252005e-05   0.0   -4.537076997999293e-05
2.974950275252005e-05   0.0   -4.537076997999293e-05
2.974950275252005e-05   0.0   -4.537076997999293e-05
2.974950275252005e-05   0.0   -4.537076997999293e-05
3.3711607618815206e-06   -2.624399601417935e-06   1.6777309858871579e-07
3.3711607618815206e-06   -2.624399601417935e-06   1.6777309858871579e-07
3.3711607618815206e-06   -2.624399601417935e-06   1.6777309858871579e-07
3.3711607618815206e-06   -2.624399601417935e-06   1.6777309858871579e-07
1.629110453990269e-05   -1.940303910186098e-06   -2.1775923946185654e-05
1.629110453990269e-05   -1.940303910186098e-06   -2.1775923946185654e-05
1.629110453990269e-05   -1.940303910186098e-06   -2.1775923946185654e-05
1.629110453990269e-05   -1.940303910186098e-06   -2.1775923946185654e-05
3.3711607618815206e-06   0.0   -4.379613021914216e-05
3.3711607618815206e-06   0.0   -4.379613021914216e-05
3.3711607618815206e-06   0.0   -4.379613021914216e-05
3.3711607618815206e-06   0.0   -4.379613021914216e-05
2.974950275252005e-05   -2.624399601417935e-06   -1.4068666622620496e-06
2.974950275252005e-05   -2.624399601417935e-06   -1.4068666622620496e-06
2.974950275252005e-05   -2.624399601417935e-06   -1.4068666622620496e-06
2.974950275252005e-05   -2.624399601417935e-06   -1.4068666622620496e-06
2.962574045080846e-05   0.0   -4.472292286245422e-05
2.962574045080846e-05   0.0   -4.472292286245422e-05
2.962574045080846e-05   0.0   -4.472292286245422e-05
2.962574045080846e-05   0.0   -4.472292286245422e-05
3.796636583590683e-06   -1.6495605135143028e-06   -6.8468010898268e-07
3.796636583590683e-06   -1.6495605135143028e-06   -6.8468010898268e-07
3.796636583590683e-06   -1.6495605135143028e-06   -6.8468010898268e-07
3.796636583590683e-06   -1.6495605135143028e-06   -6.8468010898268e-07
1.649845060634499e-05   -7.723272027600499e-07   -2.238071013335906e-05
1.649845060634499e-05   -7.723272027600499e-07   -2.238071013335906e-05
1.649845060634499e-05   -7.723272027600499e-07   -2.238071013335906e-05
1.649845060634499e-05   -7.723272027600499e-07   -2.238071013335906e-05
3.7966365835906797e-06   0.0   -4.3733186554345596e-05
3.7966365835906797e-06   0.0   -4.3733186554345596e-05
3.7966365835906797e-06   0.0   -4.3733186554345596e-05
3.7966365835906797e-06   0.0   -4.3733186554345596e-05
2.962574045080846e-05   -1.6495605135143028e-06   -1.6744164170912637e-06
2.962574045080846e-05   -1.6495605135143028e-06   -1.6744164170912637e-06
2.962574045080846e-05   -1.6495605135143028e-06   -1.6744164170912637e-06
2.962574045080846e-05   -1.6495605135143028e-06   -1.6744164170912637e-06
3.0203009547992458e-05   0.0   -4.299056344119743e-05
3.0203009547992458e-05   0.0   -4.299056344119743e-05
3.0203009547992458e-05   0.0   -4.299056344119743e-05
3.0203009547992458e-05   0.0   -4.299056344119743e-05
4.3678770330933694e-06   -3.3981689860182094e-07   2.7188088946214067e-07
4.3678770330933694e-06   -3.3981689860182094e-07   2.7188088946214067e-07
4.3678770330933694e-06   -3.3981689860182094e-07   2.7188088946214067e-07
4.3678770330933694e-06   -3.3981689860182094e-07   2.7188088946214067e-07
1.699982306579156e-05   6.188525942901781e-07   -2.1356564194103353e-05
1.699982306579156e-05   6.188525942901781e-07   -2.1356564194103353e-05
1.699982306579156e-05   6.188525942901781e-07   -2.1356564194103353e-05
1.699982306579156e-05   6.188525942901781e-07   -2.1356564194103353e-05
2.969246854814113e-05   0.0   -4.51319910579443e-05
2.969246854814113e-05   0.0   -4.51319910579443e-05
2.969246854814113e-05   0.0   -4.51319910579443e-05
2.969246854814113e-05   0.0   -4.51319910579443e-05
6.705738513660078e-05   -8.83133352278259e-06   1.1844069809152617e-05
6.705738513660078e-05   -8.83133352278259e-06   1.1844069809152617e-05
6.705738513660078e-05   -8.83133352278259e-06   1.1844069809152617e-05
6.705738513660078e-05   -8.83133352278259e-06   1.1844069809152617e-05
6.298320852315742e-05   0.0   -4.987786328827188e-05
6.298320852315742e-05   0.0   -4.987786328827188e-05
6.298320852315742e-05   0.0   -4.987786328827188e-05
6.298320852315742e-05   0.0   -4.987786328827188e-05
2.974950275252005e-05   -7.511822180464921e-06   1.0018739637736011e-05
2.974950275252005e-05   -7.511822180464921e-06   1.0018739637736011e-05
2.974950275252005e-05   -7.511822180464921e-06   1.0018739637736011e-05
2.974950275252005e-05   -7.511822180464921e-06   1.0018739637736011e-05
4.633783853564927e-05   -3.954893525272987e-06   -1.9762643860594497e-05
4.633783853564927e-05   -3.954893525272987e-06   -1.9762643860594497e-05
4.633783853564927e-05   -3.954893525272987e-06   -1.9762643860594497e-05
4.633783853564927e-05   -3.954893525272987e-06   -1.9762643860594497e-05
2.9749502752520024e-05   0.0   -4.537076997999289e-05
2.9749502752520024e-05   0.0   -4.537076997999289e-05
2.9749502752520024e-05   0.0   -4.537076997999289e-05
2.9749502752520024e-05   0.0   -4.537076997999289e-05
6.29832085231572e-05   -7.511822180464881e-06   5.5116463294570316e-06
6.29832085231572e-05   -7.511822180464881e-06   5.5116463294570316e-06
6.29832085231572e-05   -7.511822180464881e-06   5.5116463294570316e-06
6.29832085231572e-05   -7.511822180464881e-06   5.5116463294570316e-06
6.110609167844273e-05   0.0   -4.884091523118176e-05
6.110609167844273e-05   0.0   -4.884091523118176e-05
6.110609167844273e-05   0.0   -4.884091523118176e-05
6.110609167844273e-05   0.0   -4.884091523118176e-05
2.962574045080846e-05   -6.863320614545917e-06   7.744329183602881e-06
2.962574045080846e-05   -6.863320614545917e-06   7.744329183602881e-06
2.962574045080846e-05   -6.863320614545917e-06   7.744329183602881e-06
2.962574045080846e-05   -6.863320614545917e-06   7.744329183602881e-06
4.5427797215481364e-05   -2.8917877093240343e-06   -2.0975351833985087e-05
4.5427797215481364e-05   -2.8917877093240343e-06   -2.0975351833985087e-05
4.5427797215481364e-05   -2.8917877093240343e-06   -2.0975351833985087e-05
4.5427797215481364e-05   -2.8917877093240343e-06   -2.0975351833985087e-05
2.962574045080846e-05   0.0   -4.472292286245422e-05
2.962574045080846e-05   0.0   -4.472292286245422e-05
2.962574045080846e-05   0.0   -4.472292286245422e-05
2.962574045080846e-05   0.0   -4.472292286245422e-05
6.110609167844251e-05   -6.863320614545877e-06   3.6263368148753156e-06
6.110609167844251e-05   -6.863320614545877e-06   3.6263368148753156e-06
6.110609167844251e-05   -6.863320614545877e-06   3.6263368148753156e-06
6.110609167844251e-05   -6.863320614545877e-06   3.6263368148753156e-06
5.830904119642801e-05   0.0   -4.6189588486465106e-05
5.830904119642801e-05   0.0   -4.6189588486465106e-05
5.830904119642801e-05   0.0   -4.6189588486465106e-05
5.830904119642801e-05   0.0   -4.6189588486465106e-05
3.0203009547992458e-05   -5.331708408779588e-06   3.852822639528644e-06
3.0203009547992458e-05   -5.331708408779588e-06   3.852822639528644e-06
3.0203009547992458e-05   -5.331708408779588e-06   3.852822639528644e-06
3.0203009547992458e-05   -5.331708408779588e-06   3.852822639528644e-06
4.396739082361829e-05   -1.2222213533424713e-06   -2.1553505053109972e-05
4.396739082361829e-05   -1.2222213533424713e-06   -2.1553505053109972e-05
4.396739082361829e-05   -1.2222213533424713e-06   -2.1553505053109972e-05
4.396739082361829e-05   -1.2222213533424713e-06   -2.1553505053109972e-05
-6.555275043412638e-05   8.36779369523487e-06   -4.304596421235178e-05
-6.555275043412638e-05   8.36779369523487e-06   -4.304596421235178e-05
-6.555275043412638e-05   8.36779369523487e-06   -4.304596421235178e-05